Solvent,Temperature (°C),Solubility (%),Polymer
"1,2-dimethylbenzene",90,0.00000611,PES
"1,2-dimethylbenzene",85,0.00000243,PES
"1,2-dimethylbenzene",80,0.00000094,PES
"1,2-dimethylbenzene",75,0.00000035,PES
"1,2-dimethylbenzene",70,0.00000013,PES
"1,2-dimethylbenzene",65,0.00000004,PES
"1,2-dimethylbenzene",60,0.00000002,PES
"1,2-dimethylbenzene",55,0,PES
"1,2-dimethylbenzene",50,0,PES
"1,2-dimethylbenzene",45,0,PES
"1,2-dimethylbenzene",40,0,PES
"1,2-dimethylbenzene",35,0,PES
"1,2-dimethylbenzene",30,0,PES
"1,2-dimethylbenzene",25,0,PES