Solvent,Temperature (°C),Solubility (%),Polymer
h2o,110,1.77E-05,PVC
h2o,105,1.21E-05,PVC
h2o,100,8.23E-06,PVC
h2o,95,5.60E-06,PVC
h2o,90,3.81E-06,PVC
h2o,85,2.59E-06,PVC
h2o,80,1.76E-06,PVC
h2o,75,1.20E-06,PVC
h2o,70,8.20E-07,PVC
h2o,65,5.60E-07,PVC
h2o,60,3.80E-07,PVC
h2o,55,2.60E-07,PVC
h2o,50,1.80E-07,PVC
h2o,45,1.20E-07,PVC
h2o,40,8.00E-08,PVC
h2o,35,6.00E-08,PVC
h2o,30,4.00E-08,PVC
h2o,25,3.00E-08,PVC
"1,4-dimethylbenzene",160,35.80102887,PVC
"1,4-dimethylbenzene",155,32.70839005,PVC
"1,4-dimethylbenzene",150,29.73277801,PVC
"1,4-dimethylbenzene",145,26.89139456,PVC
"1,4-dimethylbenzene",140,24.19858815,PVC
"1,4-dimethylbenzene",135,21.6655324,PVC
"1,4-dimethylbenzene",130,19.30008786,PVC
"1,4-dimethylbenzene",125,17.10683556,PVC
"1,4-dimethylbenzene",120,15.08725656,PVC
"1,4-dimethylbenzene",115,13.24002307,PVC
"1,4-dimethylbenzene",110,11.56136397,PVC
"1,4-dimethylbenzene",105,10.0454698,PVC
"1,4-dimethylbenzene",100,8.68490722,PVC
"1,4-dimethylbenzene",95,7.47101967,PVC
"1,4-dimethylbenzene",90,6.39429466,PVC
"1,4-dimethylbenzene",85,5.44470734,PVC
"1,4-dimethylbenzene",80,4.6119815,PVC
"1,4-dimethylbenzene",75,3.88584543,PVC
"1,4-dimethylbenzene",70,3.25621897,PVC
"1,4-dimethylbenzene",65,2.71336468,PVC
"1,4-dimethylbenzene",60,2.24800181,PVC
"1,4-dimethylbenzene",55,1.85138795,PVC
"1,4-dimethylbenzene",50,1.51537326,PVC
"1,4-dimethylbenzene",45,1.23243179,PVC
"1,4-dimethylbenzene",40,0.99567413,PVC
"1,4-dimethylbenzene",35,0.79884502,PVC
"1,4-dimethylbenzene",30,0.63630965,PVC
"1,4-dimethylbenzene",25,0.50302991,PVC
"1,2-dimethylbenzene",160,36.28380487,PVC
"1,2-dimethylbenzene",155,33.20391629,PVC
"1,2-dimethylbenzene",150,30.23469474,PVC
"1,2-dimethylbenzene",145,27.39329548,PVC
"1,2-dimethylbenzene",140,24.6942952,PVC
"1,2-dimethylbenzene",135,22.14933703,PVC
"1,2-dimethylbenzene",130,19.76694225,PVC
"1,2-dimethylbenzene",125,17.55248505,PVC
"1,2-dimethylbenzene",120,15.50831193,PVC
"1,2-dimethylbenzene",115,13.63397729,PVC
"1,2-dimethylbenzene",110,11.92656245,PVC
"1,2-dimethylbenzene",105,10.3810451,PVC
"1,2-dimethylbenzene",100,8.99068966,PVC
"1,2-dimethylbenzene",95,7.74743013,PVC
"1,2-dimethylbenzene",90,6.64225388,PVC
"1,2-dimethylbenzene",85,5.66550272,PVC
"1,2-dimethylbenzene",80,4.80718788,PVC
"1,2-dimethylbenzene",75,4.05723052,PVC
"1,2-dimethylbenzene",70,3.40566603,PVC
"1,2-dimethylbenzene",65,2.84280739,PVC
"1,2-dimethylbenzene",60,2.359371,PVC
"1,2-dimethylbenzene",55,1.94656948,PVC
"1,2-dimethylbenzene",50,1.59617585,PVC
"1,2-dimethylbenzene",45,1.30056369,PVC
"1,2-dimethylbenzene",40,1.0527272,PVC
"1,2-dimethylbenzene",35,0.84628503,PVC
"1,2-dimethylbenzene",30,0.67547169,PVC
"1,2-dimethylbenzene",25,0.53511789,PVC
propanol,160,25.54005687,PC
propanol,155,19.58853239,PC
propanol,150,14.54654974,PC
propanol,145,10.51295969,PC
propanol,140,7.43135799,PC
propanol,135,5.15896118,PC
propanol,130,3.52772631,PC
propanol,125,2.38083856,PC
propanol,120,1.58785144,PC
propanol,115,1.04726102,PC
propanol,110,0.68334564,PC
propanol,105,0.44121791,PC
propanol,100,0.28192178,PC
propanol,95,0.17826879,PC
propanol,90,0.11155498,PC
propanol,85,0.06908132,PC
propanol,80,0.04233313,PC
propanol,75,0.02567073,PC
propanol,70,0.01540365,PC
propanol,65,0.00914584,PC
propanol,60,0.00537304,PC
propanol,55,0.00312312,PC
propanol,50,0.00179595,PC
propanol,45,0.00102163,PC
propanol,40,0.00057481,PC
propanol,35,0.00031982,PC
propanol,30,0.00017593,PC
propanol,25,9.57E-05,PC
2-propanol,160,27.31894713,PC
2-propanol,155,21.13942699,PC
2-propanol,150,15.80588312,PC
2-propanol,145,11.47839149,PC
2-propanol,140,8.13993549,PC
2-propanol,135,5.6626223,PC
2-propanol,130,3.87733148,PC
2-propanol,125,2.61912672,PC
2-propanol,120,1.74788577,PC
2-propanol,115,1.15338354,PC
2-propanol,110,0.75291102,PC
2-propanol,105,0.4863246,PC
2-propanol,100,0.3108606,PC
2-propanol,95,0.196641,PC
2-propanol,90,0.12309714,PC
2-propanol,85,0.07625655,PC
2-propanol,80,0.0467465,PC
2-propanol,75,0.02835633,PC
2-propanol,70,0.01702019,PC
2-propanol,65,0.01010817,PC
2-propanol,60,0.0059395,PC
2-propanol,55,0.00345273,PC
2-propanol,50,0.00198549,PC
2-propanol,45,0.00112929,PC
2-propanol,40,0.0006352,PC
2-propanol,35,0.00035325,PC
2-propanol,30,0.00019419,PC
2-propanol,25,0.00010549,PC
propanone,160,100,PC
propanone,155,100,PC
propanone,150,100,PC
propanone,145,56.66741527,PC
propanone,140,54.30177918,PC
propanone,135,51.88388041,PC
propanone,130,49.41633262,PC
propanone,125,46.90482526,PC
propanone,120,44.35686628,PC
propanone,115,41.77772882,PC
propanone,110,39.1768689,PC
propanone,105,36.56178233,PC
propanone,100,33.94303877,PC
propanone,95,31.33179991,PC
propanone,90,28.73943145,PC
propanone,85,26.17875006,PC
propanone,80,23.66330565,PC
propanone,75,21.20970894,PC
propanone,70,18.83241606,PC
propanone,65,16.54878041,PC
propanone,60,14.3753287,PC
propanone,55,12.33025615,PC
propanone,50,10.4300848,PC
propanone,45,8.6901501,PC
propanone,40,7.12334269,PC
propanone,35,5.73858287,PC
propanone,30,4.53989155,PC
propanone,25,3.52511319,PC
acetylacetone,160,31.06335945,PC
acetylacetone,155,27.48985925,PC
acetylacetone,150,24.07926703,PC
acetylacetone,145,20.87172445,PC
acetylacetone,140,17.89970224,PC
acetylacetone,135,15.1866905,PC
acetylacetone,130,12.74687249,PC
acetylacetone,125,10.58494191,PC
acetylacetone,120,8.69703816,PC
acetylacetone,115,7.07180546,PC
acetylacetone,110,5.69205,PC
acetylacetone,105,4.5363326,PC
acetylacetone,100,3.58071088,PC
acetylacetone,95,2.80021908,PC
acetylacetone,90,2.17018413,PC
acetylacetone,85,1.66721897,PC
acetylacetone,80,1.26990577,PC
acetylacetone,75,0.95918311,PC
acetylacetone,70,0.71850085,PC
acetylacetone,65,0.53378795,PC
acetylacetone,60,0.39329813,PC
acetylacetone,55,0.28738204,PC
acetylacetone,50,0.2082253,PC
acetylacetone,45,0.14958051,PC
acetylacetone,40,0.10651166,PC
acetylacetone,35,0.07516153,PC
acetylacetone,30,0.05254721,PC
acetylacetone,25,0.03638504,PC
benzene,160,55.25472223,PC
benzene,155,52.79567649,PC
benzene,150,50.28324313,PC
benzene,145,47.72014894,PC
benzene,140,45.10844321,PC
benzene,135,42.45363521,PC
benzene,130,39.76353042,PC
benzene,125,37.04335732,PC
benzene,120,34.304272,PC
benzene,115,31.55426876,PC
benzene,110,28.80920221,PC
benzene,105,26.08353917,PC
benzene,100,23.39530455,PC
benzene,95,20.76526444,PC
benzene,90,18.21698123,PC
benzene,85,15.77551021,PC
benzene,80,13.46746518,PC
benzene,75,11.31914649,PC
benzene,70,9.35472459,PC
benzene,65,7.59432269,PC
benzene,60,6.05108626,PC
benzene,55,4.73011644,PC
benzene,50,3.62699649,PC
benzene,45,2.72869397,PC
benzene,40,2.01509207,PC
benzene,35,1.46159344,PC
benzene,30,1.04188426,PC
benzene,25,0.73031444,PC
chcl3,160,42.23552949,PC
chcl3,155,39.68536705,PC
chcl3,150,37.15334059,PC
chcl3,145,34.64845551,PC
chcl3,140,32.18070039,PC
chcl3,135,29.75831275,PC
chcl3,130,27.39131501,PC
chcl3,125,25.08999935,PC
chcl3,120,22.8620125,PC
chcl3,115,20.71913868,PC
chcl3,110,18.66719177,PC
chcl3,105,16.7152055,PC
chcl3,100,14.87054071,PC
chcl3,95,13.13946893,PC
chcl3,90,11.5268849,PC
chcl3,85,10.03669506,PC
chcl3,80,8.6710853,PC
chcl3,75,7.43091217,PC
chcl3,70,6.31549624,PC
chcl3,65,5.32238191,PC
chcl3,60,4.44734003,PC
chcl3,55,3.68470539,PC
chcl3,50,3.02733512,PC
chcl3,45,2.46702917,PC
chcl3,40,1.9946966,PC
chcl3,35,1.60080132,PC
chcl3,30,1.27572053,PC
chcl3,25,1.0100686,PC
cyclohexane,160,8.04412204,PC
cyclohexane,155,6.02282,PC
cyclohexane,150,4.51128694,PC
cyclohexane,145,3.37570756,PC
cyclohexane,140,2.52019237,PC
cyclohexane,135,1.87504457,PC
cyclohexane,130,1.38889005,PC
cyclohexane,125,1.0233364,PC
cyclohexane,120,0.74941097,PC
cyclohexane,115,0.54507927,PC
cyclohexane,110,0.3935027,PC
cyclohexane,105,0.28178058,PC
cyclohexane,100,0.20002714,PC
cyclohexane,95,0.14067872,PC
cyclohexane,90,0.09796722,PC
cyclohexane,85,0.06751471,PC
cyclohexane,80,0.04601844,PC
cyclohexane,75,0.03100468,PC
cyclohexane,70,0.02063593,PC
cyclohexane,65,0.01355978,PC
cyclohexane,60,0.00879087,PC
cyclohexane,55,0.00561911,PC
cyclohexane,50,0.00353874,PC
cyclohexane,45,0.00219407,PC
cyclohexane,40,0.00133821,PC
cyclohexane,35,0.00080223,PC
cyclohexane,30,0.00047226,PC
cyclohexane,25,0.00027275,PC
cyclohexanol,160,11.47196888,PC
cyclohexanol,155,8.40633408,PC
cyclohexanol,150,6.07855794,PC
cyclohexanol,145,4.34684444,PC
cyclohexanol,140,3.07768801,PC
cyclohexanol,135,2.15854711,PC
cyclohexanol,130,1.49975298,PC
cyclohexanol,125,1.03214126,PC
cyclohexanol,120,0.70341568,PC
cyclohexanol,115,0.47458043,PC
cyclohexanol,110,0.31688478,PC
cyclohexanol,105,0.20934468,PC
cyclohexanol,100,0.13679736,PC
cyclohexanol,95,0.08839905,PC
cyclohexanol,90,0.05647847,PC
cyclohexanol,85,0.03567021,PC
cyclohexanol,80,0.02226622,PC
cyclohexanol,75,0.01373539,PC
cyclohexanol,70,0.00837197,PC
cyclohexanol,65,0.00504131,PC
cyclohexanol,60,0.00299863,PC
cyclohexanol,55,0.00176154,PC
cyclohexanol,50,0.00102181,PC
cyclohexanol,45,0.00058514,PC
cyclohexanol,40,0.00033071,PC
cyclohexanol,35,0.00018443,PC
cyclohexanol,30,0.00010144,PC
cyclohexanol,25,5.50E-05,PC
"2,3-dihydropyran",160,52.10872948,PC
"2,3-dihydropyran",155,49.50042359,PC
"2,3-dihydropyran",150,46.84113257,PC
"2,3-dihydropyran",145,44.13649779,PC
"2,3-dihydropyran",140,41.39057432,PC
"2,3-dihydropyran",135,38.61342911,PC
"2,3-dihydropyran",130,35.81262965,PC
"2,3-dihydropyran",125,33.00025317,PC
"2,3-dihydropyran",120,30.19030882,PC
"2,3-dihydropyran",115,27.3975102,PC
"2,3-dihydropyran",110,24.64013477,PC
"2,3-dihydropyran",105,21.94037659,PC
"2,3-dihydropyran",100,19.32053772,PC
"2,3-dihydropyran",95,16.80657271,PC
"2,3-dihydropyran",90,14.42464176,PC
"2,3-dihydropyran",85,12.2008993,PC
"2,3-dihydropyran",80,10.1595812,PC
"2,3-dihydropyran",75,8.32065616,PC
"2,3-dihydropyran",70,6.69779342,PC
"2,3-dihydropyran",65,5.29704579,PC
"2,3-dihydropyran",60,4.11542951,PC
"2,3-dihydropyran",55,3.14168379,PC
"2,3-dihydropyran",50,2.35752583,PC
"2,3-dihydropyran",45,1.73994355,PC
"2,3-dihydropyran",40,1.26372643,PC
"2,3-dihydropyran",35,0.90374004,PC
"2,3-dihydropyran",30,0.63663463,PC
"2,3-dihydropyran",25,0.44188419,PC
dimethylformamide,160,100,PC
dimethylformamide,155,54.03848236,PC
dimethylformamide,150,51.70932804,PC
dimethylformamide,145,49.36527365,PC
dimethylformamide,140,47.01376474,PC
dimethylformamide,135,44.66127592,PC
dimethylformamide,130,42.3139865,PC
dimethylformamide,125,39.97758283,PC
dimethylformamide,120,37.65697127,PC
dimethylformamide,115,35.36208851,PC
dimethylformamide,110,33.09523891,PC
dimethylformamide,105,30.86464799,PC
dimethylformamide,100,28.67531829,PC
dimethylformamide,95,26.53213972,PC
dimethylformamide,90,24.44179565,PC
dimethylformamide,85,22.41015107,PC
dimethylformamide,80,20.44152799,PC
dimethylformamide,75,18.54145762,PC
dimethylformamide,70,16.71612055,PC
dimethylformamide,65,14.97031248,PC
dimethylformamide,60,13.31000631,PC
dimethylformamide,55,11.73991751,PC
dimethylformamide,50,10.26490952,PC
dimethylformamide,45,8.89082736,PC
dimethylformamide,40,7.62158314,PC
dimethylformamide,35,6.46117938,PC
dimethylformamide,30,5.412195,PC
dimethylformamide,25,4.47598264,PC
dimethylsulfoxide,160,32.85106329,PC
dimethylsulfoxide,155,30.17415973,PC
dimethylsulfoxide,150,27.65913252,PC
dimethylsulfoxide,145,25.297445,PC
dimethylsulfoxide,140,23.0810844,PC
dimethylsulfoxide,135,21.00341792,PC
dimethylsulfoxide,130,19.05750747,PC
dimethylsulfoxide,125,17.23682669,PC
dimethylsulfoxide,120,15.53508199,PC
dimethylsulfoxide,115,13.94716386,PC
dimethylsulfoxide,110,12.46787363,PC
dimethylsulfoxide,105,11.09368515,PC
dimethylsulfoxide,100,9.82103901,PC
dimethylsulfoxide,95,8.64638258,PC
dimethylsulfoxide,90,7.56672234,PC
dimethylsulfoxide,85,6.57918813,PC
dimethylsulfoxide,80,5.68090178,PC
dimethylsulfoxide,75,4.86910921,PC
dimethylsulfoxide,70,4.14076357,PC
dimethylsulfoxide,65,3.49238967,PC
dimethylsulfoxide,60,2.92037833,PC
dimethylsulfoxide,55,2.42052062,PC
dimethylsulfoxide,50,1.98811311,PC
dimethylsulfoxide,45,1.61808297,PC
dimethylsulfoxide,40,1.30490472,PC
dimethylsulfoxide,35,1.04280964,PC
dimethylsulfoxide,30,0.82593025,PC
dimethylsulfoxide,25,0.6484567,PC
diphenylether,160,25.1552605,PC
diphenylether,155,22.48987359,PC
diphenylether,150,19.948885,PC
diphenylether,145,17.54800994,PC
diphenylether,140,15.30110004,PC
diphenylether,135,13.22015968,PC
diphenylether,130,11.31430542,PC
diphenylether,125,9.5891391,PC
diphenylether,120,8.04651312,PC
diphenylether,115,6.68442821,PC
diphenylether,110,5.49710259,PC
diphenylether,105,4.47533562,PC
diphenylether,100,3.60721153,PC
diphenylether,95,2.8788269,PC
diphenylether,90,2.27513469,PC
diphenylether,85,1.78070286,PC
diphenylether,80,1.38039324,PC
diphenylether,75,1.05988656,PC
diphenylether,70,0.80604254,PC
diphenylether,65,0.60711676,PC
diphenylether,60,0.45284637,PC
diphenylether,55,0.33443919,PC
diphenylether,50,0.24449435,PC
diphenylether,45,0.17687994,PC
diphenylether,40,0.12658867,PC
diphenylether,35,0.0895864,PC
diphenylether,30,0.06266448,PC
diphenylether,25,0.04330229,PC
dodecane,160,0.55528514,PC
dodecane,155,0.4289623,PC
dodecane,150,0.32951889,PC
dodecane,145,0.25161267,PC
dodecane,140,0.19090324,PC
dodecane,135,0.14386762,PC
dodecane,130,0.1076523,PC
dodecane,125,0.07995308,PC
dodecane,120,0.0589167,PC
dodecane,115,0.04305956,PC
dodecane,110,0.03120049,PC
dodecane,105,0.02240484,PC
dodecane,100,0.01593794,PC
dodecane,95,0.01122657,PC
dodecane,90,0.00782695,PC
dodecane,85,0.00539841,PC
dodecane,80,0.00368174,PC
dodecane,75,0.00248159,PC
dodecane,70,0.00165219,PC
dodecane,65,0.0010859,PC
dodecane,60,0.00070414,PC
dodecane,55,0.00045017,PC
dodecane,50,0.00028357,PC
dodecane,45,0.00017586,PC
dodecane,40,0.00010729,PC
dodecane,35,6.43E-05,PC
dodecane,30,3.79E-05,PC
dodecane,25,2.19E-05,PC
ethanol,160,30.40024562,PC
ethanol,155,23.6106786,PC
ethanol,150,17.66986719,PC
ethanol,145,12.7918693,PC
ethanol,140,9.00216659,PC
ethanol,135,6.1887724,PC
ethanol,130,4.17379049,PC
ethanol,125,2.77028601,PC
ethanol,120,1.81375064,PC
ethanol,115,1.17314263,PC
ethanol,110,0.75035594,PC
ethanol,105,0.47488669,PC
ethanol,100,0.29749562,PC
ethanol,95,0.18451872,PC
ethanol,90,0.11332782,PC
ethanol,85,0.06893145,PC
ethanol,80,0.04152619,PC
ethanol,75,0.02477899,PC
ethanol,70,0.0146464,PC
ethanol,65,0.00857606,PC
ethanol,60,0.00497476,PC
ethanol,55,0.00285885,PC
ethanol,50,0.0016276,PC
ethanol,45,0.00091796,PC
ethanol,40,0.00051285,PC
ethanol,35,0.00028379,PC
ethanol,30,0.00015552,PC
ethanol,25,8.44E-05,PC
ethylacetate,160,51.45007686,PC
ethylacetate,155,48.90730073,PC
ethylacetate,150,46.32640256,PC
ethylacetate,145,43.71349659,PC
ethylacetate,140,41.07316619,PC
ethylacetate,135,38.41447801,PC
ethylacetate,130,35.74413404,PC
ethylacetate,125,33.07311872,PC
ethylacetate,120,30.41187702,PC
ethylacetate,115,27.77371361,PC
ethylacetate,110,25.17425738,PC
ethylacetate,105,22.62650175,PC
ethylacetate,100,20.15014937,PC
ethylacetate,95,17.76380686,PC
ethylacetate,90,15.48689124,PC
ethylacetate,85,13.33892721,PC
ethylacetate,80,11.33901642,PC
ethylacetate,75,9.50443198,PC
ethylacetate,70,7.84896288,PC
ethylacetate,65,6.38182594,PC
ethylacetate,60,5.10652299,PC
ethylacetate,55,4.02040324,PC
ethylacetate,50,3.11450853,PC
ethylacetate,45,2.37462492,PC
ethylacetate,40,1.78262761,PC
ethylacetate,35,1.31823896,PC
ethylacetate,30,0.96073886,PC
ethylacetate,25,0.69036492,PC
glycol,160,0.02556454,PC
glycol,155,0.01643423,PC
glycol,150,0.01045861,PC
glycol,145,0.006588,PC
glycol,140,0.00410722,PC
glycol,135,0.00253415,PC
glycol,130,0.00154739,PC
glycol,125,0.00093509,PC
glycol,120,0.00055927,PC
glycol,115,0.00033108,PC
glycol,110,0.00019402,PC
glycol,105,0.00011257,PC
glycol,100,6.47E-05,PC
glycol,95,3.68E-05,PC
glycol,90,2.08E-05,PC
glycol,85,1.16E-05,PC
glycol,80,6.42E-06,PC
glycol,75,3.52E-06,PC
glycol,70,1.92E-06,PC
glycol,65,1.04E-06,PC
glycol,60,5.60E-07,PC
glycol,55,3.00E-07,PC
glycol,50,1.60E-07,PC
glycol,45,8.00E-08,PC
glycol,40,4.00E-08,PC
glycol,35,2.00E-08,PC
glycol,30,1.00E-08,PC
glycol,25,1.00E-08,PC
n-heptane,160,2.67987234,PC
n-heptane,155,2.05602039,PC
n-heptane,150,1.57144451,PC
n-heptane,145,1.19569237,PC
n-heptane,140,0.90513442,PC
n-heptane,135,0.68128398,PC
n-heptane,130,0.50960265,PC
n-heptane,125,0.37861927,PC
n-heptane,120,0.2792738,PC
n-heptane,115,0.2044133,PC
n-heptane,110,0.14840145,PC
n-heptane,105,0.10681122,PC
n-heptane,100,0.07618057,PC
n-heptane,95,0.05381662,PC
n-heptane,90,0.03763788,PC
n-heptane,85,0.02604691,PC
n-heptane,80,0.01782739,PC
n-heptane,75,0.01206115,PC
n-heptane,70,0.00806152,PC
n-heptane,65,0.0053201,PC
n-heptane,60,0.0034644,PC
n-heptane,55,0.00222465,PC
n-heptane,50,0.00140773,PC
n-heptane,45,0.00087717,PC
n-heptane,40,0.00053779,PC
n-heptane,35,0.00032415,PC
n-heptane,30,0.00019192,PC
n-heptane,25,0.0001115,PC
hexane,160,4.71344476,PC
hexane,155,3.59785636,PC
hexane,150,2.73892933,PC
hexane,145,2.0775834,PC
hexane,140,1.56904375,PC
hexane,135,1.17896903,PC
hexane,130,0.88080815,PC
hexane,125,0.65390335,PC
hexane,120,0.48212216,PC
hexane,115,0.35284239,PC
hexane,110,0.25618967,PC
hexane,105,0.18445125,PC
hexane,100,0.1316209,PC
hexane,95,0.09304123,PC
hexane,90,0.06512014,PC
hexane,85,0.04510473,PC
hexane,80,0.03090064,PC
hexane,75,0.02092741,PC
hexane,70,0.01400297,PC
hexane,65,0.00925178,PC
hexane,60,0.006032,PC
hexane,55,0.00387831,PC
hexane,50,0.00245737,PC
hexane,45,0.0015333,PC
hexane,40,0.00094139,PC
hexane,35,0.00056825,PC
hexane,30,0.00033695,PC
hexane,25,0.00019607,PC
isopropylamine,160,100,PC
isopropylamine,155,60.95014998,PC
isopropylamine,150,58.53790831,PC
isopropylamine,145,56.01970378,PC
isopropylamine,140,53.388047,PC
isopropylamine,135,50.64135804,PC
isopropylamine,130,47.7746534,PC
isopropylamine,125,44.78990444,PC
isopropylamine,120,41.68645183,PC
isopropylamine,115,38.47055726,PC
isopropylamine,110,35.15120094,PC
isopropylamine,105,31.74647068,PC
isopropylamine,100,28.28318484,PC
isopropylamine,95,24.79683627,PC
isopropylamine,90,21.33863032,PC
isopropylamine,85,17.97213431,PC
isopropylamine,80,14.77075513,PC
isopropylamine,75,11.81377555,PC
isopropylamine,70,9.17515095,PC
isopropylamine,65,6.91051499,PC
isopropylamine,60,5.04670429,PC
isopropylamine,55,3.57693692,PC
isopropylamine,50,2.46473534,PC
isopropylamine,45,1.65458186,PC
isopropylamine,40,1.08427605,PC
isopropylamine,35,0.69477411,PC
isopropylamine,30,0.43581856,PC
isopropylamine,25,0.26780442,PC
methanol,160,9.64386579,PC
methanol,155,6.51194654,PC
methanol,150,4.31244669,PC
methanol,145,2.80978517,PC
methanol,140,1.80567835,PC
methanol,135,1.14658323,PC
methanol,130,0.72028242,PC
methanol,125,0.44801253,PC
methanol,120,0.27606488,PC
methanol,115,0.1685936,PC
methanol,110,0.10207468,PC
methanol,105,0.0612862,PC
methanol,100,0.03649973,PC
methanol,95,0.02156814,PC
methanol,90,0.01264876,PC
methanol,85,0.00736397,PC
methanol,80,0.00425719,PC
methanol,75,0.00244453,PC
methanol,70,0.00139457,PC
methanol,65,0.00079061,PC
methanol,60,0.00044551,PC
methanol,55,0.00024957,PC
methanol,50,0.00013901,PC
methanol,45,7.70E-05,PC
methanol,40,4.24E-05,PC
methanol,35,2.32E-05,PC
methanol,30,1.27E-05,PC
methanol,25,6.85E-06,PC
methylacetate,160,55.73667195,PC
methylacetate,155,53.20291377,PC
methylacetate,150,50.60789875,PC
methylacetate,145,47.95669133,PC
methylacetate,140,45.25674161,PC
methylacetate,135,42.51271697,PC
methylacetate,130,39.73427055,PC
methylacetate,125,36.93315918,PC
methylacetate,120,34.12075642,PC
methylacetate,115,31.30999843,PC
methylacetate,110,28.51693488,PC
methylacetate,105,25.76058324,PC
methylacetate,100,23.06007159,PC
methylacetate,95,20.4353338,PC
methylacetate,90,17.91063815,PC
methylacetate,85,15.508069,PC
methylacetate,80,13.25116513,PC
methylacetate,75,11.16140003,PC
methylacetate,70,9.25772887,PC
methylacetate,65,7.55486587,PC
methylacetate,60,6.06160016,PC
methylacetate,55,4.77971067,PC
methylacetate,50,3.70363829,PC
methylacetate,45,2.82062837,PC
methylacetate,40,2.11226024,PC
methylacetate,35,1.55632278,PC
methylacetate,30,1.12900957,PC
methylacetate,25,0.80692188,PC
butanone,160,57.96028387,PC
butanone,155,55.61423253,PC
butanone,150,53.21405187,PC
butanone,145,50.7597176,PC
butanone,140,48.25688568,PC
butanone,135,45.70804598,PC