Solvent,Temperature (°C),Solubility (%),Polymer
ch2cl2,135,59.02171324,PS
ch2cl2,130,56.37545744,PS
ch2cl2,125,53.67105146,PS
ch2cl2,120,50.91368338,PS
ch2cl2,115,48.10734739,PS
ch2cl2,110,45.2588469,PS
ch2cl2,105,42.3758201,PS
ch2cl2,100,39.46886305,PS
ch2cl2,95,36.54832668,PS
ch2cl2,90,33.62821135,PS
ch2cl2,85,30.72487925,PS
ch2cl2,80,27.85575246,PS
ch2cl2,75,25.04178365,PS
ch2cl2,70,22.30464128,PS
ch2cl2,65,19.66815497,PS
ch2cl2,60,17.15654718,PS
ch2cl2,55,14.79308207,PS
ch2cl2,50,12.59946657,PS
ch2cl2,45,10.59373277,PS
ch2cl2,40,8.78938618,PS
ch2cl2,35,7.19367479,PS
ch2cl2,30,5.80725507,PS
ch2cl2,25,4.62424695,PS
propyleneglycol,160,2.90541318,PS
propyleneglycol,155,2.17583657,PS
propyleneglycol,150,1.62765555,PS
propyleneglycol,145,1.21473138,PS
propyleneglycol,140,0.90360899,PS
propyleneglycol,135,0.66951212,PS
propyleneglycol,130,0.49383305,PS
propyleneglycol,125,0.36246569,PS
propyleneglycol,120,0.26465632,PS
propyleneglycol,115,0.19218768,PS
propyleneglycol,110,0.13877941,PS
propyleneglycol,105,0.09963993,PS
propyleneglycol,100,0.07112519,PS
propyleneglycol,95,0.05047599,PS
propyleneglycol,90,0.03561401,PS
propyleneglycol,85,0.02498306,PS
propyleneglycol,80,0.01742534,PS
propyleneglycol,75,0.01208525,PS
propyleneglycol,70,0.0083349,PS
propyleneglycol,65,0.00571671,PS
propyleneglycol,60,0.00389964,PS
propyleneglycol,55,0.00264583,PS
propyleneglycol,50,0.00178558,PS
propyleneglycol,45,0.00119864,PS
propyleneglycol,40,0.00080038,PS
propyleneglycol,35,0.0005316,PS
propyleneglycol,30,0.00035118,PS
propyleneglycol,25,0.00023073,PS
tert-butanol,160,63.42508375,PS
tert-butanol,155,58.44772108,PS
tert-butanol,150,52.89554912,PS
tert-butanol,145,46.83292065,PS
tert-butanol,140,40.43802585,PS
tert-butanol,135,34.00419124,PS
tert-butanol,130,27.87676319,PS
tert-butanol,125,22.3506663,PS
tert-butanol,120,17.59748552,PS
tert-butanol,115,13.65812927,PS
tert-butanol,110,10.48181721,PS
tert-butanol,105,7.97105277,PS
tert-butanol,100,6.01506604,PS
tert-butanol,95,4.50798395,PS
tert-butanol,90,3.35702142,PS
tert-butanol,85,2.48463864,PS
tert-butanol,80,1.82787916,PS
tert-butanol,75,1.33660001,PS
tert-butanol,70,0.971388,PS
tert-butanol,65,0.70156739,PS
tert-butanol,60,0.50346305,PS
tert-butanol,55,0.35893352,PS
tert-butanol,50,0.25417167,PS
tert-butanol,45,0.17873833,PS
tert-butanol,40,0.12479237,PS
tert-butanol,35,0.08648318,PS
tert-butanol,30,0.05947466,PS
tert-butanol,25,0.04057524,PS
thf,160,100,PS
thf,155,100,PS
thf,150,100,PS
thf,145,100,PS
thf,140,100,PS
thf,135,100,PS
thf,130,100,PS
thf,125,60.68860424,PS
thf,120,58.40131506,PS
thf,115,56.07823281,PS
thf,110,53.72034863,PS
thf,105,51.33504021,PS
thf,100,48.92252862,PS
thf,95,46.48887271,PS
thf,90,44.03898159,PS
thf,85,41.57812087,PS
thf,80,39.11066345,PS
thf,75,36.64636704,PS
thf,70,34.18910511,PS
thf,65,31.74871611,PS
thf,60,29.33166921,PS
thf,55,26.95016952,PS
thf,50,24.61156433,PS
thf,45,22.3266988,PS
thf,40,20.10775616,PS
thf,35,17.96591209,PS
thf,30,15.91381197,PS
thf,25,13.96364225,PS
thp,160,100,PS
thp,155,68.75230452,PS
thp,150,66.39730035,PS
thp,145,63.98888123,PS
thp,140,61.53166713,PS
thp,135,59.02761545,PS
thp,130,56.4816584,PS
thp,125,53.89845569,PS
thp,120,51.28222663,PS
thp,115,48.63900269,PS
thp,110,45.97514335,PS
thp,105,43.29774436,PS
thp,100,40.61433591,PS
thp,95,37.93440821,PS
thp,90,35.26725704,PS
thp,85,32.6223905,PS
thp,80,30.012245,PS
thp,75,27.44760709,PS
thp,70,24.94228739,PS
thp,65,22.50856223,PS
thp,60,20.16093469,PS
thp,55,17.91240306,PS
thp,50,15.77708847,PS
thp,45,13.76720453,PS
thp,40,11.89472364,PS
thp,35,10.16931416,PS
thp,30,8.59834642,PS
thp,25,7.18630272,PS
toluene,160,68.7885857,PS
toluene,155,66.27385367,PS
toluene,150,63.69359209,PS
toluene,145,61.05049245,PS
toluene,140,58.34844677,PS
toluene,135,55.59117053,PS
toluene,130,52.78412831,PS
toluene,125,49.93351754,PS
toluene,120,47.04639982,PS
toluene,115,44.13197733,PS
toluene,110,41.19990499,PS
toluene,105,38.2618745,PS
toluene,100,35.33051125,PS
toluene,95,32.42074761,PS
toluene,90,29.54951436,PS
toluene,85,26.73374631,PS
toluene,80,23.99358203,PS
toluene,75,21.34854057,PS
toluene,70,18.81911775,PS
toluene,65,16.42511456,PS
toluene,60,14.18485971,PS
toluene,55,12.11464485,PS
toluene,50,10.22698471,PS
toluene,45,8.53013161,PS
toluene,40,7.02748923,PS
toluene,35,5.71726342,PS
toluene,30,4.59262907,PS
toluene,25,3.64244854,PS
triethylamine,160,61.76125084,PS
triethylamine,155,58.3094296,PS
triethylamine,150,54.73677413,PS
triethylamine,145,51.06104037,PS
triethylamine,140,47.3064504,PS
triethylamine,135,43.50384243,PS
triethylamine,130,39.69053873,PS
triethylamine,125,35.90895155,PS
triethylamine,120,32.20468155,PS
triethylamine,115,28.62368623,PS
triethylamine,110,25.20932597,PS
triethylamine,105,21.99941082,PS
triethylamine,100,19.02390457,PS
triethylamine,95,16.30353315,PS
triethylamine,90,13.84940316,PS
triethylamine,85,11.66353342,PS
triethylamine,80,9.7400419,PS
triethylamine,75,8.06671781,PS
triethylamine,70,6.62671584,PS
triethylamine,65,5.40017651,PS
triethylamine,60,4.36565076,PS
triethylamine,55,3.50125865,PS
triethylamine,50,2.78558185,PS
triethylamine,45,2.19829799,PS
triethylamine,40,1.72059718,PS
triethylamine,35,1.33542158,PS
triethylamine,30,1.02756839,PS
triethylamine,25,0.78369214,PS
h2o,160,0,PS
h2o,155,0,PS
h2o,150,0,PS
h2o,145,0,PS
h2o,140,0,PS
h2o,135,0,PS
h2o,130,0,PS
h2o,125,0,PS
h2o,120,0,PS
h2o,115,0,PS
h2o,110,0,PS
h2o,105,0,PS
h2o,100,0,PS
h2o,95,0,PS
h2o,90,0,PS
h2o,85,0,PS
h2o,80,0,PS
h2o,75,0,PS
h2o,70,0,PS
h2o,65,0,PS
h2o,60,0,PS
h2o,55,0,PS
h2o,50,0,PS
h2o,45,0,PS
h2o,40,0,PS
h2o,35,0,PS
h2o,30,0,PS
h2o,25,0,PS
"1,4-dimethylbenzene",160,64.69365436,PS
"1,4-dimethylbenzene",155,61.91217738,PS
"1,4-dimethylbenzene",150,59.07138851,PS
"1,4-dimethylbenzene",145,56.17748443,PS
"1,4-dimethylbenzene",140,53.236924,PS
"1,4-dimethylbenzene",135,50.25755665,PS
"1,4-dimethylbenzene",130,47.24871711,PS
"1,4-dimethylbenzene",125,44.22039704,PS
"1,4-dimethylbenzene",120,41.18445987,PS
"1,4-dimethylbenzene",115,38.15518283,PS
"1,4-dimethylbenzene",110,35.14703376,PS
"1,4-dimethylbenzene",105,32.17641797,PS
"1,4-dimethylbenzene",100,29.26097885,PS
"1,4-dimethylbenzene",95,26.41956768,PS
"1,4-dimethylbenzene",90,23.67149498,PS
"1,4-dimethylbenzene",85,21.03598052,PS
"1,4-dimethylbenzene",80,18.53194547,PS
"1,4-dimethylbenzene",75,16.17695388,PS
"1,4-dimethylbenzene",70,13.98616368,PS
"1,4-dimethylbenzene",65,11.97170295,PS
"1,4-dimethylbenzene",60,10.14213098,PS
"1,4-dimethylbenzene",55,8.5016795,PS
"1,4-dimethylbenzene",50,7.05016436,PS
"1,4-dimethylbenzene",45,5.78300854,PS
"1,4-dimethylbenzene",40,4.69172244,PS
"1,4-dimethylbenzene",35,3.76454149,PS
"1,4-dimethylbenzene",30,2.98729618,PS
"1,4-dimethylbenzene",25,2.34430186,PS
"1,2-dimethylbenzene",160,64.80799525,PS
"1,2-dimethylbenzene",155,62.04506943,PS
"1,2-dimethylbenzene",150,59.22450671,PS
"1,2-dimethylbenzene",145,56.35180769,PS
"1,2-dimethylbenzene",140,53.43344227,PS
"1,2-dimethylbenzene",135,50.4769592,PS
"1,2-dimethylbenzene",130,47.49109533,PS
"1,2-dimethylbenzene",125,44.48587808,PS
"1,2-dimethylbenzene",120,41.47288808,PS
"1,2-dimethylbenzene",115,38.46421328,PS
"1,2-dimethylbenzene",110,35.47520949,PS
"1,2-dimethylbenzene",105,32.52107034,PS
"1,2-dimethylbenzene",100,29.61877877,PS
"1,2-dimethylbenzene",95,26.78633369,PS
"1,2-dimethylbenzene",90,24.04257824,PS
"1,2-dimethylbenzene",85,21.40644803,PS
"1,2-dimethylbenzene",80,18.89638453,PS
"1,2-dimethylbenzene",75,16.52990389,PS
"1,2-dimethylbenzene",70,14.3225876,PS
"1,2-dimethylbenzene",65,12.28715875,PS
"1,2-dimethylbenzene",60,10.43287314,PS
"1,2-dimethylbenzene",55,8.76502466,PS
"1,2-dimethylbenzene",50,7.28456694,PS
"1,2-dimethylbenzene",45,5.98804319,PS
"1,2-dimethylbenzene",40,4.86801278,PS
"1,2-dimethylbenzene",35,3.91358688,PS
"1,2-dimethylbenzene",30,3.11126492,PS
"1,2-dimethylbenzene",25,2.44579508,PS
propanol,160,74.75088507,EVOH
propanol,155,66.73751159,EVOH
propanol,150,58.62632342,EVOH
propanol,145,50.59332643,EVOH
propanol,140,42.82792113,EVOH
propanol,135,35.51847758,EVOH
propanol,130,28.83370867,EVOH
propanol,125,22.90370829,EVOH
propanol,120,17.80500839,EVOH
propanol,115,13.55506422,EVOH
propanol,110,10.1168124,EVOH
propanol,105,7.41184195,EVOH
propanol,100,5.33737425,EVOH
propanol,95,3.78256383,EVOH
propanol,90,2.64092445,EVOH
propanol,85,1.81796829,EVOH
propanol,80,1.23457485,EVOH
propanol,75,0.82734481,EVOH
propanol,70,0.54719184,EVOH
propanol,65,0.3571453,EVOH
propanol,60,0.22998841,EVOH
propanol,55,0.14607376,EVOH
propanol,50,0.09146362,EVOH
propanol,45,0.05642883,EVOH
propanol,40,0.03428178,EVOH
propanol,35,0.02049457,EVOH
propanol,30,0.01204765,EVOH
propanol,25,0.00695828,EVOH
2-propanol,160,74.71952843,EVOH
2-propanol,155,66.68774697,EVOH
2-propanol,150,58.55748008,EVOH
2-propanol,145,50.50779557,EVOH
2-propanol,140,42.73098799,EVOH
2-propanol,135,35.41739774,EVOH
2-propanol,130,28.73623123,EVOH
2-propanol,125,22.81647277,EVOH
2-propanol,120,17.73240028,EVOH
2-propanol,115,13.4987896,EVOH
2-propanol,110,10.07623194,EVOH
2-propanol,105,7.38474992,EVOH
2-propanol,100,5.32086376,EVOH
2-propanol,95,3.77371015,EVOH
2-propanol,90,2.63719443,EVOH
2-propanol,85,1.81738475,EVOH
2-propanol,80,1.23571743,EVOH
2-propanol,75,0.82926706,EVOH
2-propanol,70,0.54931111,EVOH
2-propanol,65,0.35913732,EVOH
2-propanol,60,0.23170014,EVOH
2-propanol,55,0.14745781,EVOH
2-propanol,50,0.09253213,EVOH
2-propanol,45,0.05722294,EVOH
2-propanol,40,0.03485273,EVOH
2-propanol,35,0.02089289,EVOH
2-propanol,30,0.01231782,EVOH
2-propanol,25,0.00713664,EVOH
propanone,160,76.55912811,EVOH
propanone,155,69.39961014,EVOH
propanone,150,62.19412572,EVOH
propanone,145,55.02877438,EVOH
propanone,140,47.99500852,EVOH
propanone,135,41.19210795,EVOH
propanone,130,34.72511269,EVOH
propanone,125,28.70049049,EVOH
propanone,120,23.21911276,EVOH
propanone,115,18.36426315,EVOH
propanone,110,14.1896814,EVOH
propanone,105,10.7112259,EVOH
propanone,100,7.90406671,EVOH
propanone,95,5.7082193,EVOH
propanone,90,4.04024434,EVOH
propanone,85,2.80676186,EVOH
propanone,80,1.91630721,EVOH
propanone,75,1.28719366,EVOH
propanone,70,0.8512734,EVOH
propanone,65,0.5545501,EVOH
propanone,60,0.35591582,EVOH
propanone,55,0.22505284,EVOH
propanone,50,0.14017637,EVOH
propanone,45,0.08597725,EVOH
propanone,40,0.0519077,EVOH
propanone,35,0.03083231,EVOH
propanone,30,0.01800796,EVOH
propanone,25,0.01033575,EVOH
acetylacetone,160,61.37199421,EVOH
acetylacetone,155,50.61751261,EVOH
acetylacetone,150,40.63212366,EVOH
acetylacetone,145,31.7443704,EVOH
acetylacetone,140,24.17209744,EVOH
acetylacetone,135,17.98426274,EVOH
acetylacetone,130,13.11160423,EVOH
acetylacetone,125,9.39233792,EVOH
acetylacetone,120,6.6248152,EVOH
acetylacetone,115,4.60785971,EVOH
acetylacetone,110,3.16323977,EVOH
acetylacetone,105,2.14409683,EVOH
acetylacetone,100,1.43500252,EVOH
acetylacetone,95,0.9481175,EVOH
acetylacetone,90,0.6181618,EVOH
acetylacetone,85,0.39751192,EVOH
acetylacetone,80,0.25196999,EVOH
acetylacetone,75,0.15733204,EVOH
acetylacetone,70,0.09670704,EVOH
acetylacetone,65,0.05847395,EVOH
acetylacetone,60,0.03475456,EVOH
acetylacetone,55,0.02028989,EVOH
acetylacetone,50,0.01162603,EVOH
acetylacetone,45,0.00653316,EVOH
acetylacetone,40,0.00359752,EVOH
acetylacetone,35,0.00193958,EVOH
acetylacetone,30,0.00102296,EVOH
acetylacetone,25,0.00052731,EVOH
benzene,160,60.45499619,EVOH
benzene,155,43.25861721,EVOH
benzene,150,25.73451685,EVOH
benzene,145,14.21479869,EVOH
benzene,140,8.17569713,EVOH
benzene,135,4.89605923,EVOH
benzene,130,2.99903146,EVOH
benzene,125,1.85506791,EVOH
benzene,120,1.14899015,EVOH
benzene,115,0.70849428,EVOH
benzene,110,0.43311141,EVOH
benzene,105,0.2616472,EVOH
benzene,100,0.15580367,EVOH
benzene,95,0.091256,EVOH
benzene,90,0.05247734,EVOH
benzene,85,0.02958006,EVOH
benzene,80,0.01631889,EVOH
benzene,75,0.00879892,EVOH
benzene,70,0.00463041,EVOH
benzene,65,0.00237504,EVOH
benzene,60,0.00118575,EVOH
benzene,55,0.00057542,EVOH
benzene,50,0.00027104,EVOH
benzene,45,0.00012374,EVOH
benzene,40,5.47E-05,EVOH
benzene,35,2.33E-05,EVOH
benzene,30,9.61E-06,EVOH
benzene,25,3.81E-06,EVOH
chcl3,160,55.45900026,EVOH
chcl3,155,43.86008296,EVOH
chcl3,150,33.64535633,EVOH
chcl3,145,25.13419137,EVOH
chcl3,140,18.38212695,EVOH
chcl3,135,13.22780956,EVOH
chcl3,130,9.40228576,EVOH
chcl3,125,6.61922034,EVOH
chcl3,120,4.6230156,EVOH
chcl3,115,3.20574039,EVOH
chcl3,110,2.20740809,EVOH
chcl3,105,1.50894606,EVOH
chcl3,100,1.02346896,EVOH
chcl3,95,0.68833683,EVOH
chcl3,90,0.45871365,EVOH
chcl3,85,0.30267622,EVOH
chcl3,80,0.19760308,EVOH
chcl3,75,0.12754881,EVOH
chcl3,70,0.08134308,EVOH
chcl3,65,0.05121826,EVOH
chcl3,60,0.0318192,EVOH
chcl3,55,0.01949003,EVOH
chcl3,50,0.01176221,EVOH
chcl3,45,0.00698884,EVOH
chcl3,40,0.00408541,EVOH
chcl3,35,0.00234769,EVOH
chcl3,30,0.00132514,EVOH
chcl3,25,0.00073404,EVOH
cyclohexane,160,5.19864387,EVOH
cyclohexane,155,2.94168698,EVOH
cyclohexane,150,1.77470608,EVOH
cyclohexane,145,1.0977021,EVOH
cyclohexane,140,0.68483852,EVOH
cyclohexane,135,0.42718911,EVOH
cyclohexane,130,0.264969,EVOH
cyclohexane,125,0.16280336,EVOH
cyclohexane,120,0.09880946,EVOH
cyclohexane,115,0.059106,EVOH
cyclohexane,110,0.0347822,EVOH
cyclohexane,105,0.02010371,EVOH
cyclohexane,100,0.01139614,EVOH
cyclohexane,95,0.00632721,EVOH
cyclohexane,90,0.00343617,EVOH
cyclohexane,85,0.00182301,EVOH
cyclohexane,80,0.00094363,EVOH
cyclohexane,75,0.00047593,EVOH
cyclohexane,70,0.00023358,EVOH
cyclohexane,65,0.0001114,EVOH
cyclohexane,60,5.16E-05,EVOH
cyclohexane,55,2.31E-05,EVOH
cyclohexane,50,1.00E-05,EVOH
cyclohexane,45,4.20E-06,EVOH
cyclohexane,40,1.70E-06,EVOH
cyclohexane,35,6.60E-07,EVOH
cyclohexane,30,2.50E-07,EVOH
cyclohexane,25,9.00E-08,EVOH
cyclohexanol,160,61.17146343,EVOH
cyclohexanol,155,50.5218476,EVOH
cyclohexanol,150,40.76884804,EVOH
cyclohexanol,145,32.19073661,EVOH
cyclohexanol,140,24.92459448,EVOH
cyclohexanol,135,18.96890086,EVOH
cyclohexanol,130,14.22008376,EVOH
cyclohexanol,125,10.51858253,EVOH
cyclohexanol,120,7.6870732,EVOH
cyclohexanol,115,5.55508441,EVOH
cyclohexanol,110,3.97174456,EVOH
cyclohexanol,105,2.81033397,EVOH
cyclohexanol,100,1.96816719,EVOH
cyclohexanol,95,1.36417989,EVOH
cyclohexanol,90,0.9356572,EVOH
cyclohexanol,85,0.63487626,EVOH
cyclohexanol,80,0.42603946,EVOH
cyclohexanol,75,0.28264061,EVOH
cyclohexanol,70,0.18529196,EVOH
cyclohexanol,65,0.11998,EVOH
cyclohexanol,60,0.07669471,EVOH
cyclohexanol,55,0.04837059,EVOH
cyclohexanol,50,0.0300811,EVOH
cyclohexanol,45,0.01843401,EVOH
cyclohexanol,40,0.01112392,EVOH
cyclohexanol,35,0.00660518,EVOH
cyclohexanol,30,0.00385618,EVOH
cyclohexanol,25,0.0022116,EVOH
"2,3-dihydropyran",160,62.27778744,EVOH
"2,3-dihydropyran",155,49.134858,EVOH
"2,3-dihydropyran",150,35.96612171,EVOH
"2,3-dihydropyran",145,24.46043918,EVOH
"2,3-dihydropyran",140,15.93012149,EVOH
"2,3-dihydropyran",135,10.25795598,EVOH
"2,3-dihydropyran",130,6.62167944,EVOH
"2,3-dihydropyran",125,4.29160724,EVOH
"2,3-dihydropyran",120,2.78554907,EVOH
"2,3-dihydropyran",115,1.80482815,EVOH
"2,3-dihydropyran",110,1.163879,EVOH
"2,3-dihydropyran",105,0.74514969,EVOH
"2,3-dihydropyran",100,0.47265207,EVOH
"2,3-dihydropyran",95,0.29651799,EVOH
"2,3-dihydropyran",90,0.18371201,EVOH
"2,3-dihydropyran",85,0.11226784,EVOH
"2,3-dihydropyran",80,0.06759685,EVOH
"2,3-dihydropyran",75,0.04006113,EVOH
"2,3-dihydropyran",70,0.02334829,EVOH
"2,3-dihydropyran",65,0.0133708,EVOH
"2,3-dihydropyran",60,0.00751766,EVOH
"2,3-dihydropyran",55,0.00414662,EVOH
"2,3-dihydropyran",50,0.00224211,EVOH
"2,3-dihydropyran",45,0.00118751,EVOH
"2,3-dihydropyran",40,0.0006156,EVOH
"2,3-dihydropyran",35,0.00031209,EVOH
"2,3-dihydropyran",30,0.0001546,EVOH
"2,3-dihydropyran",25,7.48E-05,EVOH
dimethylformamide,160,100,EVOH
dimethylformamide,155,100,EVOH
dimethylformamide,150,100,EVOH
dimethylformamide,145,56.07421347,EVOH
dimethylformamide,140,50.43682225,EVOH
dimethylformamide,135,45.08894163,EVOH
dimethylformamide,130,40.0307068,EVOH
dimethylformamide,125,35.2654044,EVOH
dimethylformamide,120,30.7989606,EVOH
dimethylformamide,115,26.63890583,EVOH
dimethylformamide,110,22.79435861,EVOH
dimethylformamide,105,19.27464731,EVOH
dimethylformamide,100,16.08816856,EVOH
dimethylformamide,95,13.24090915,EVOH
dimethylformamide,90,10.73467402,EVOH
dimethylformamide,85,8.56592985,EVOH
dimethylformamide,80,6.7238791,EVOH
dimethylformamide,75,5.19032011,EVOH
dimethylformamide,70,3.94004028,EVOH
dimethylformamide,65,2.94208078,EVOH
dimethylformamide,60,2.16206337,EVOH
dimethylformamide,55,1.56460189,EVOH
dimethylformamide,50,1.11567461,EVOH
dimethylformamide,45,0.78438137,EVOH
dimethylformamide,40,0.5439806,EVOH
dimethylformamide,35,0.37226784,EVOH
dimethylformamide,30,0.25143436,EVOH
dimethylformamide,25,0.16761162,EVOH
dimethylsulfoxide,160,100,EVOH
dimethylsulfoxide,155,100,EVOH
dimethylsulfoxide,150,100,EVOH
dimethylsulfoxide,145,100,EVOH
dimethylsulfoxide,140,100,EVOH
dimethylsulfoxide,135,47.94345511,EVOH
dimethylsulfoxide,130,43.46365151,EVOH
dimethylsulfoxide,125,39.26101738,EVOH
dimethylsulfoxide,120,35.32676269,EVOH
dimethylsulfoxide,115,31.6520319,EVOH
dimethylsulfoxide,110,28.22919458,EVOH
dimethylsulfoxide,105,25.05108224,EVOH
dimethylsulfoxide,100,22.11066373,EVOH
dimethylsulfoxide,95,19.40033547,EVOH
dimethylsulfoxide,90,16.9131269,EVOH
dimethylsulfoxide,85,14.64351947,EVOH
dimethylsulfoxide,80,12.58374018,EVOH
dimethylsulfoxide,75,10.72700191,EVOH
dimethylsulfoxide,70,9.06578548,EVOH
dimethylsulfoxide,65,7.59187832,EVOH
dimethylsulfoxide,60,6.29640198,EVOH
dimethylsulfoxide,55,5.16935935,EVOH
dimethylsulfoxide,50,4.19967522,EVOH
dimethylsulfoxide,45,3.37515728,EVOH
dimethylsulfoxide,40,2.68280179,EVOH
dimethylsulfoxide,35,2.10883176,EVOH
dimethylsulfoxide,30,1.63918437,EVOH
dimethylsulfoxide,25,1.25992118,EVOH
diphenylether,160,21.40757098,EVOH
diphenylether,155,11.50523415,EVOH
diphenylether,150,6.78737608,EVOH
diphenylether,145,4.20077566,EVOH
diphenylether,140,2.66137222,EVOH
diphenylether,135,1.70306797,EVOH
diphenylether,130,1.09193669,EVOH
diphenylether,125,0.69771585,EVOH
diphenylether,120,0.44260422,EVOH
diphenylether,115,0.27793807,EVOH
diphenylether,110,0.1723741,EVOH
diphenylether,105,0.10537859,EVOH
diphenylether,100,0.06339689,EVOH
diphenylether,95,0.03747794,EVOH
diphenylether,90,0.02174128,EVOH
diphenylether,85,0.01236061,EVOH
diphenylether,80,0.00687867,EVOH
diphenylether,75,0.00374242,EVOH
diphenylether,70,0.00198821,EVOH
diphenylether,65,0.00103016,EVOH
diphenylether,60,0.00051993,EVOH
diphenylether,55,0.00025529,EVOH
diphenylether,50,0.00012179,EVOH
diphenylether,45,5.64E-05,EVOH
diphenylether,40,2.53E-05,EVOH
diphenylether,35,1.10E-05,EVOH
diphenylether,30,4.60E-06,EVOH
diphenylether,25,1.86E-06,EVOH
dodecane,160,1.59921936,EVOH
dodecane,155,1.03287361,EVOH
dodecane,150,0.66922761,EVOH
dodecane,145,0.43248119,EVOH
dodecane,140,0.27767425,EVOH
dodecane,135,0.17662145,EVOH
dodecane,130,0.11105328,EVOH
dodecane,125,0.06889892,EVOH
dodecane,120,0.04211267,EVOH
dodecane,115,0.02532399,EVOH
dodecane,110,0.01496297,EVOH
dodecane,105,0.00867653,EVOH
dodecane,100,0.00493182,EVOH
dodecane,95,0.00274472,EVOH
dodecane,90,0.00149386,EVOH
dodecane,85,0.0007942,EVOH
dodecane,80,0.00041194,EVOH
dodecane,75,0.00020819,EVOH
dodecane,70,0.00010239,EVOH
dodecane,65,4.89E-05,EVOH
dodecane,60,2.27E-05,EVOH
dodecane,55,1.02E-05,EVOH
dodecane,50,4.44E-06,EVOH
dodecane,45,1.86E-06,EVOH
dodecane,40,7.60E-07,EVOH
dodecane,35,2.90E-07,EVOH
dodecane,30,1.10E-07,EVOH
dodecane,25,4.00E-08,EVOH
ethanol,160,79.97909838,EVOH
ethanol,155,73.30866085,EVOH
ethanol,150,66.35458655,EVOH
ethanol,145,59.21977125,EVOH
ethanol,140,52.02656252,EVOH
ethanol,135,44.91509867,EVOH
ethanol,130,38.03800596,EVOH
ethanol,125,31.55070212,EVOH
ethanol,120,25.59789951,EVOH
ethanol,115,20.29721475,EVOH
ethanol,110,15.72492119,EVOH
ethanol,105,11.90736337,EVOH
ethanol,100,8.82078371,EVOH
ethanol,95,6.40061353,EVOH
ethanol,90,4.55614856,EVOH
ethanol,85,3.1861366,EVOH
ethanol,80,2.19167032,EVOH
ethanol,75,1.48446566,EVOH
ethanol,70,0.99074546,EVOH
ethanol,65,0.65183865,EVOH
ethanol,60,0.42284622,EVOH
ethanol,55,0.27044127,EVOH