Solvent,Temperature (°C),Solubility (%),Polymer
butanone,130,43.1191589,PC
butanone,125,40.49546355,PC
butanone,120,37.84391712,PC
butanone,115,35.17401575,PC
butanone,110,32.49451771,PC
butanone,105,29.81788402,PC
butanone,100,27.15774691,PC
butanone,95,24.52989609,PC
butanone,90,21.95317674,PC
butanone,85,19.44460057,PC
butanone,80,17.02808063,PC
butanone,75,14.7250487,PC
butanone,70,12.55906431,PC
butanone,65,10.55214131,PC
butanone,60,8.72407279,PC
butanone,55,7.09047792,PC
butanone,50,5.66094222,PC
butanone,45,4.43775924,PC
butanone,40,3.41546041,PC
butanone,35,2.58117409,PC
butanone,30,1.91623462,PC
butanone,25,1.39824004,PC
ch2cl2,160,100,PC
ch2cl2,155,100,PC
ch2cl2,150,100,PC
ch2cl2,145,100,PC
ch2cl2,140,47.16736766,PC
ch2cl2,135,44.90223625,PC
ch2cl2,130,42.62392815,PC
ch2cl2,125,40.33232698,PC
ch2cl2,120,38.03548403,PC
ch2cl2,115,35.73534907,PC
ch2cl2,110,33.44082437,PC
ch2cl2,105,31.15390735,PC
ch2cl2,100,28.8831902,PC
ch2cl2,95,26.63611316,PC
ch2cl2,90,24.41932363,PC
ch2cl2,85,22.24349473,PC
ch2cl2,80,20.11607188,PC
ch2cl2,75,18.04976181,PC
ch2cl2,70,16.05328385,PC
ch2cl2,65,14.13997672,PC
ch2cl2,60,12.32246355,PC
ch2cl2,55,10.61216259,PC
ch2cl2,50,9.02215465,PC
ch2cl2,45,7.56357386,PC
ch2cl2,40,6.24615775,PC
ch2cl2,35,5.07660947,PC
ch2cl2,30,4.05806723,PC
ch2cl2,25,3.18919395,PC
propyleneglycol,160,0.41097749,PC
propyleneglycol,155,0.27826749,PC
propyleneglycol,150,0.18680121,PC
propyleneglycol,145,0.12427295,PC
propyleneglycol,140,0.08190295,PC
propyleneglycol,135,0.05345988,PC
propyleneglycol,130,0.03455166,PC
propyleneglycol,125,0.02210823,PC
propyleneglycol,120,0.01400345,PC
propyleneglycol,115,0.00877976,PC
propyleneglycol,110,0.00544857,PC
propyleneglycol,105,0.00334683,PC
propyleneglycol,100,0.00203494,PC
propyleneglycol,95,0.00122477,PC
propyleneglycol,90,0.00072975,PC
propyleneglycol,85,0.00043048,PC
propyleneglycol,80,0.00025143,PC
propyleneglycol,75,0.00014542,PC
propyleneglycol,70,8.33E-05,PC
propyleneglycol,65,4.73E-05,PC
propyleneglycol,60,2.66E-05,PC
propyleneglycol,55,1.48E-05,PC
propyleneglycol,50,8.15E-06,PC
propyleneglycol,45,4.46E-06,PC
propyleneglycol,40,2.41E-06,PC
propyleneglycol,35,1.29E-06,PC
propyleneglycol,30,6.90E-07,PC
propyleneglycol,25,3.60E-07,PC
tert-butanol,160,28.21476078,PC
tert-butanol,155,22.57874427,PC
tert-butanol,150,17.5046975,PC
tert-butanol,145,13.1904617,PC
tert-butanol,140,9.70227437,PC
tert-butanol,135,6.99502703,PC
tert-butanol,130,4.95977082,PC
tert-butanol,125,3.466863,PC
tert-butanol,120,2.39280892,PC
tert-butanol,115,1.63230612,PC
tert-butanol,110,1.10118028,PC
tert-butanol,105,0.73484746,PC
tert-butanol,100,0.4851334,PC
tert-butanol,95,0.31684629,PC
tert-butanol,90,0.20470695,PC
tert-butanol,85,0.13081967,PC
tert-butanol,80,0.08268432,PC
tert-butanol,75,0.05168118,PC
tert-butanol,70,0.03194087,PC
tert-butanol,65,0.01951677,PC
tert-butanol,60,0.01178829,PC
tert-butanol,55,0.00703724,PC
tert-butanol,50,0.00415123,PC
tert-butanol,45,0.00241923,PC
tert-butanol,40,0.00139247,PC
tert-butanol,35,0.00079136,PC
tert-butanol,30,0.0004439,PC
tert-butanol,25,0.00024566,PC
thf,160,100,PC
thf,155,100,PC
thf,150,100,PC
thf,145,53.57599776,PC
thf,140,51.35401073,PC
thf,135,49.09799364,PC
thf,130,46.81149822,PC
thf,125,44.49698262,PC
thf,120,42.16020047,PC
thf,115,39.80408676,PC
thf,110,37.43243052,PC
thf,105,35.05266035,PC
thf,100,32.67023947,PC
thf,95,30.29294861,PC
thf,90,27.92924954,PC
thf,85,25.58760945,PC
thf,80,23.27805278,PC
thf,75,21.01387166,PC
thf,70,18.80637725,PC
thf,65,16.67007106,PC
thf,60,14.6198302,PC
thf,55,12.67026042,PC
thf,50,10.83868406,PC
thf,45,9.14018331,PC
thf,40,7.58874989,PC
thf,35,6.1960963,PC
thf,30,4.97023586,PC
thf,25,3.91396649,PC
thp,160,51.02233341,PC
thp,155,48.40975199,PC
thp,150,45.75720248,PC
thp,145,43.07424235,PC
thp,140,40.36691714,PC
thp,135,37.64364579,PC
thp,130,34.91645729,PC
thp,125,32.19563839,PC
thp,120,29.49465905,PC
thp,115,26.82852778,PC
thp,110,24.21189873,PC
thp,105,21.66344742,PC
thp,100,19.2016574,PC
thp,95,16.84562304,PC
thp,90,14.61417857,PC
thp,85,12.52637708,PC
thp,80,10.5989542,PC
thp,75,8.84607052,PC
thp,70,7.27780295,PC
thp,65,5.89913348,PC
thp,60,4.70971017,PC
thp,55,3.70317926,PC
thp,50,2.86797938,PC
thp,45,2.18836337,PC
thp,40,1.64577138,PC
thp,35,1.22042773,PC
thp,30,0.89275148,PC
thp,25,0.64443787,PC
toluene,160,47.58720847,PC
toluene,155,44.79035689,PC
toluene,150,41.95728619,PC
toluene,145,39.0972877,PC
toluene,140,36.21887253,PC
toluene,135,33.33677157,PC
toluene,130,30.46622603,PC
toluene,125,27.62380639,PC
toluene,120,24.82998027,PC
toluene,115,22.10567919,PC
toluene,110,19.47464203,PC
toluene,105,16.96126688,PC
toluene,100,14.59043146,PC
toluene,95,12.38547639,PC
toluene,90,10.36686809,PC
toluene,85,8.55031926,PC
toluene,80,6.94585275,PC
toluene,75,5.5560184,PC
toluene,70,4.37601452,PC
toluene,65,3.3942198,PC
toluene,60,2.59342217,PC
toluene,55,1.95271964,PC
toluene,50,1.44947645,PC
toluene,45,1.06105712,PC
toluene,40,0.76619408,PC
toluene,35,0.54585462,PC
toluene,30,0.38367555,PC
toluene,25,0.26604402,PC
triethylamine,160,19.47778429,PC
triethylamine,155,16.17838944,PC
triethylamine,150,13.30012982,PC
triethylamine,145,10.83140796,PC
triethylamine,140,8.74457117,PC
triethylamine,135,7.00262799,PC
triethylamine,130,5.56455321,PC
triethylamine,125,4.38900391,PC
triethylamine,120,3.43668688,PC
triethylamine,115,2.67167278,PC
triethylamine,110,2.06202715,PC
triethylamine,105,1.57995497,PC
triethylamine,100,1.20166427,PC
triethylamine,95,0.90706757,PC
triethylamine,90,0.67940379,PC
triethylamine,85,0.50483307,PC
triethylamine,80,0.37203723,PC
triethylamine,75,0.27184392,PC
triethylamine,70,0.19688513,PC
triethylamine,65,0.14129337,PC
triethylamine,60,0.10043666,PC
triethylamine,55,0.07069048,PC
triethylamine,50,0.0492442,PC
triethylamine,45,0.0339385,PC
triethylamine,40,0.02313034,PC
triethylamine,35,0.01558194,PC
triethylamine,30,0.01037051,PC
triethylamine,25,0.00681546,PC
h2o,160,0,PC
h2o,155,0,PC
h2o,150,0,PC
h2o,145,0,PC
h2o,140,0,PC
h2o,135,0,PC
h2o,130,0,PC
h2o,125,0,PC
h2o,120,0,PC
h2o,115,0,PC
h2o,110,0,PC
h2o,105,0,PC
h2o,100,0,PC
h2o,95,0,PC
h2o,90,0,PC
h2o,85,0,PC
h2o,80,0,PC
h2o,75,0,PC
h2o,70,0,PC
h2o,65,0,PC
h2o,60,0,PC
h2o,55,0,PC
h2o,50,0,PC
h2o,45,0,PC
h2o,40,0,PC
h2o,35,0,PC
h2o,30,0,PC
h2o,25,0,PC
"1,4-dimethylbenzene",160,39.53346803,PC
"1,4-dimethylbenzene",155,36.44397227,PC
"1,4-dimethylbenzene",150,33.36172185,PC
"1,4-dimethylbenzene",145,30.30803367,PC
"1,4-dimethylbenzene",140,27.30450676,PC
"1,4-dimethylbenzene",135,24.37665084,PC
"1,4-dimethylbenzene",130,21.5497566,PC
"1,4-dimethylbenzene",125,18.85096969,PC
"1,4-dimethylbenzene",120,16.30600809,PC
"1,4-dimethylbenzene",115,13.93850909,PC
"1,4-dimethylbenzene",110,11.76836179,PC
"1,4-dimethylbenzene",105,9.81038549,PC
"1,4-dimethylbenzene",100,8.07271753,PC
"1,4-dimethylbenzene",95,6.55667195,PC
"1,4-dimethylbenzene",90,5.25658417,PC
"1,4-dimethylbenzene",85,4.1605721,PC
"1,4-dimethylbenzene",80,3.25192561,PC
"1,4-dimethylbenzene",75,2.51067399,PC
"1,4-dimethylbenzene",70,1.91525214,PC
"1,4-dimethylbenzene",65,1.44395721,PC
"1,4-dimethylbenzene",60,1.07610637,PC
"1,4-dimethylbenzene",55,0.79281606,PC
"1,4-dimethylbenzene",50,0.5774453,PC
"1,4-dimethylbenzene",45,0.41575202,PC
"1,4-dimethylbenzene",40,0.29584656,PC
"1,4-dimethylbenzene",35,0.2080137,PC
"1,4-dimethylbenzene",30,0.14446358,PC
"1,4-dimethylbenzene",25,0.09905558,PC
"1,2-dimethylbenzene",160,40.43677185,PC
"1,2-dimethylbenzene",155,37.41474692,PC
"1,2-dimethylbenzene",150,34.39414605,PC
"1,2-dimethylbenzene",145,31.39359354,PC
"1,2-dimethylbenzene",140,28.43204875,PC
"1,2-dimethylbenzene",135,25.5320543,PC
"1,2-dimethylbenzene",130,22.71664756,PC
"1,2-dimethylbenzene",125,20.01069459,PC
"1,2-dimethylbenzene",120,17.43904161,PC
"1,2-dimethylbenzene",115,15.02518573,PC
"1,2-dimethylbenzene",110,12.79047824,PC
"1,2-dimethylbenzene",105,10.75217338,PC
"1,2-dimethylbenzene",100,8.92252524,PC
"1,2-dimethylbenzene",95,7.30725266,PC
"1,2-dimethylbenzene",90,5.90558695,PC
"1,2-dimethylbenzene",85,4.71023331,PC
"1,2-dimethylbenzene",80,3.70822171,PC
"1,2-dimethylbenzene",75,2.88231572,PC
"1,2-dimethylbenzene",70,2.21254553,PC
"1,2-dimethylbenzene",65,1.67779021,PC
"1,2-dimethylbenzene",60,1.25712611,PC
"1,2-dimethylbenzene",55,0.93086712,PC
"1,2-dimethylbenzene",50,0.68123725,PC
"1,2-dimethylbenzene",45,0.4927249,PC
"1,2-dimethylbenzene",40,0.3521741,PC
"1,2-dimethylbenzene",35,0.24869492,PC
"1,2-dimethylbenzene",30,0.17346137,PC
"1,2-dimethylbenzene",25,0.11945301,PC
propanol,160,13.63828284,PET
propanol,155,10.10739242,PET
propanol,150,7.32095091,PET
propanol,145,5.19720413,PET
propanol,140,3.6249912,PET
propanol,135,2.48891329,PET
propanol,130,1.68452314,PET
propanol,125,1.12488262,PET
propanol,120,0.74155164,PET
propanol,115,0.48272931,PET
propanol,110,0.31033827,PET
propanol,105,0.19702476,PET
propanol,100,0.12351127,PET
propanol,95,0.07643887,PET
propanol,90,0.0466927,PET
propanol,85,0.02814521,PET
propanol,80,0.01673658,PET
propanol,75,0.00981552,PET
propanol,70,0.00567565,PET
propanol,65,0.00323472,PET
propanol,60,0.00181647,PET
propanol,55,0.0010047,PET
propanol,50,0.00054713,PET
propanol,45,0.00029322,PET
propanol,40,0.00015459,PET
propanol,35,8.01E-05,PET
propanol,30,4.08E-05,PET
propanol,25,2.04E-05,PET
2-propanol,160,13.97517651,PET
2-propanol,155,10.36162527,PET
2-propanol,150,7.50464612,PET
2-propanol,145,5.32520479,PET
2-propanol,140,3.7115083,PET
2-propanol,135,2.5458724,PET
2-propanol,130,1.72114121,PET
2-propanol,125,1.14789716,PET
2-propanol,120,0.75569304,PET
2-propanol,115,0.49121608,PET
2-propanol,110,0.31530312,PET
2-propanol,105,0.19984732,PET
2-propanol,100,0.12506338,PET
2-propanol,95,0.07725848,PET
2-propanol,90,0.04710341,PET
2-propanol,85,0.02833632,PET
2-propanol,80,0.01681535,PET
2-propanol,75,0.00984053,PET
2-propanol,70,0.00567744,PET
2-propanol,65,0.00322828,PET
2-propanol,60,0.00180854,PET
2-propanol,55,0.00099785,PET
2-propanol,50,0.00054201,PET
2-propanol,45,0.00028972,PET
2-propanol,40,0.00015232,PET
2-propanol,35,7.87E-05,PET
2-propanol,30,4.00E-05,PET
2-propanol,25,1.99E-05,PET
propanone,160,44.39609881,PET
propanone,155,41.19017605,PET
propanone,150,37.97567406,PET
propanone,145,34.77151402,PET
propanone,140,31.5933555,PET
propanone,135,28.46141166,PET
propanone,130,25.39826187,PET
propanone,125,22.42733765,PET
propanone,120,19.57368752,PET
propanone,115,16.86463618,PET
propanone,110,14.32666473,PET
propanone,105,11.9852418,PET
propanone,100,9.86243062,PET
propanone,95,7.97537798,PET
propanone,90,6.3334955,PET
propanone,85,4.93745908,PET
propanone,80,3.77874774,PET
propanone,75,2.84010217,PET
propanone,70,2.09773665,PET
propanone,65,1.52389433,PET
propanone,60,1.08974475,PET
propanone,55,0.76774569,PET
propanone,50,0.53324883,PET
propanone,45,0.36532833,PET
propanone,40,0.246953,PET
propanone,35,0.16473194,PET
propanone,30,0.10843101,PET
propanone,25,0.07041321,PET
acetylacetone,160,14.23691545,PET
acetylacetone,155,11.6589966,PET
acetylacetone,150,9.42748626,PET
acetylacetone,145,7.52899735,PET
acetylacetone,140,5.94081752,PET
acetylacetone,135,4.63359144,PET
acetylacetone,130,3.57405122,PET
acetylacetone,125,2.72762278,PET
acetylacetone,120,2.06054173,PET
acetylacetone,115,1.54141675,PET
acetylacetone,110,1.14217998,PET
acetylacetone,105,0.83853925,PET
acetylacetone,100,0.61002608,PET
acetylacetone,95,0.4397804,PET
acetylacetone,90,0.31418048,PET
acetylacetone,85,0.22240354,PET
acetylacetone,80,0.15597682,PET
acetylacetone,75,0.10835449,PET
acetylacetone,70,0.07454071,PET
acetylacetone,65,0.05076585,PET
acetylacetone,60,0.0342165,PET
acetylacetone,55,0.02281511,PET
acetylacetone,50,0.01504368,PET
acetylacetone,45,0.00980475,PET
acetylacetone,40,0.00631335,PET
acetylacetone,35,0.00401419,PET
acetylacetone,30,0.0025189,PET
acetylacetone,25,0.00155897,PET
benzene,160,32.85841146,PET
benzene,155,29.46494898,PET
benzene,150,26.15050848,PET
benzene,145,22.94519162,PET
benzene,140,19.88032063,PET
benzene,135,16.98842553,PET
benzene,130,14.30121047,PET
benzene,125,11.84741272,PET
benzene,120,9.64989381,PET
benzene,115,7.72315997,PET
benzene,110,6.07185496,PET
benzene,105,4.68934706,PET
benzene,100,3.55896299,PET
benzene,95,2.65588993,PET
benzene,90,1.9502283,PET
benzene,85,1.41018621,PET
benzene,80,1.00481048,PET
benzene,75,0.70591988,PET
benzene,70,0.48917619,PET
benzene,65,0.33443641,PET
benzene,60,0.22559279,PET
benzene,55,0.15012625,PET
benzene,50,0.09853774,PET
benzene,45,0.06376822,PET
benzene,40,0.04066827,PET
benzene,35,0.02554517,PET
benzene,30,0.0157935,PET
benzene,25,0.00960382,PET
chcl3,160,24.60410523,PET
chcl3,155,22.14186787,PET
chcl3,150,19.82799248,PET
chcl3,145,17.6644231,PET
chcl3,140,15.65289673,PET
chcl3,135,13.79388209,PET
chcl3,130,12.08584353,PET
chcl3,125,10.52647854,PET
chcl3,120,9.11231195,PET
chcl3,115,7.83870597,PET
chcl3,110,6.70037813,PET
chcl3,105,5.69061836,PET
chcl3,100,4.80220346,PET
chcl3,95,4.02706727,PET
chcl3,90,3.35645923,PET
chcl3,85,2.78126228,PET
chcl3,80,2.29206425,PET
chcl3,75,1.87948419,PET
chcl3,70,1.53428313,PET
chcl3,65,1.24762284,PET
chcl3,60,1.01123576,PET
chcl3,55,0.81754182,PET
chcl3,50,0.65972204,PET
chcl3,45,0.53176509,PET
chcl3,40,0.42845295,PET
chcl3,35,0.34532886,PET
chcl3,30,0.2786328,PET
chcl3,25,0.22523059,PET
cyclohexane,160,1.09525762,PET
cyclohexane,155,0.78667973,PET
cyclohexane,150,0.56156169,PET
cyclohexane,145,0.39808641,PET
cyclohexane,140,0.28005072,PET
cyclohexane,135,0.19538982,PET
cyclohexane,130,0.1351197,PET
cyclohexane,125,0.0925647,PET
cyclohexane,120,0.062784,PET
cyclohexane,115,0.04214052,PET
cyclohexane,110,0.02797496,PET
cyclohexane,105,0.01835805,PET
cyclohexane,100,0.01190242,PET
cyclohexane,95,0.00761996,PET
cyclohexane,90,0.00481422,PET
cyclohexane,85,0.0029998,PET
cyclohexane,80,0.00184237,PET
cyclohexane,75,0.00111452,PET
cyclohexane,70,0.00066362,PET
cyclohexane,65,0.00038864,PET
cyclohexane,60,0.00022368,PET
cyclohexane,55,0.00012641,PET
cyclohexane,50,7.01E-05,PET
cyclohexane,45,3.81E-05,PET
cyclohexane,40,2.03E-05,PET
cyclohexane,35,1.06E-05,PET
cyclohexane,30,5.36E-06,PET
cyclohexane,25,2.66E-06,PET
cyclohexanol,160,5.01645599,PET
cyclohexanol,155,3.61274754,PET
cyclohexanol,150,2.57156881,PET
cyclohexanol,145,1.81002701,PET
cyclohexanol,140,1.26002572,PET
cyclohexanol,135,0.86750828,PET
cyclohexanol,130,0.59060992,PET
cyclohexanol,125,0.397516,PET
cyclohexanol,120,0.26442616,PET
cyclohexanol,115,0.17378191,PET
cyclohexanol,110,0.11279798,PET
cyclohexanol,105,0.07228312,PET
cyclohexanol,100,0.04571428,PET
cyclohexanol,95,0.02852244,PET
cyclohexanol,90,0.01755016,PET
cyclohexanol,85,0.0106457,PET
cyclohexanol,80,0.00636361,PET
cyclohexanol,75,0.00374716,PET
cyclohexanol,70,0.0021727,PET
cyclohexanol,65,0.00124,PET
cyclohexanol,60,0.00069626,PET
cyclohexanol,55,0.00038447,PET
cyclohexanol,50,0.00020868,PET
cyclohexanol,45,0.00011127,PET
cyclohexanol,40,5.83E-05,PET
cyclohexanol,35,2.99E-05,PET
cyclohexanol,30,1.51E-05,PET
cyclohexanol,25,7.45E-06,PET
"2,3-dihydropyran",160,27.20396541,PET
"2,3-dihydropyran",155,23.77500142,PET
"2,3-dihydropyran",150,20.51102855,PET
"2,3-dihydropyran",145,17.44917187,PET
"2,3-dihydropyran",140,14.62435291,PET
"2,3-dihydropyran",135,12.06550853,PET
"2,3-dihydropyran",130,9.79336308,PET
"2,3-dihydropyran",125,7.81839552,PET
"2,3-dihydropyran",120,6.13907035,PET
"2,3-dihydropyran",115,4.74260056,PET
"2,3-dihydropyran",110,3.60649125,PET
"2,3-dihydropyran",105,2.70143156,PET
"2,3-dihydropyran",100,1.99458983,PET
"2,3-dihydropyran",95,1.45265433,PET
"2,3-dihydropyran",90,1.04418632,PET
"2,3-dihydropyran",85,0.74114365,PET
"2,3-dihydropyran",80,0.51960329,PET
"2,3-dihydropyran",75,0.35987993,PET
"2,3-dihydropyran",70,0.24624571,PET
"2,3-dihydropyran",65,0.16644011,PET
"2,3-dihydropyran",60,0.1111038,PET
"2,3-dihydropyran",55,0.073222,PET
"2,3-dihydropyran",50,0.04762316,PET
"2,3-dihydropyran",45,0.03055255,PET
"2,3-dihydropyran",40,0.0193236,PET
"2,3-dihydropyran",35,0.01204122,PET
"2,3-dihydropyran",30,0.00738753,PET
"2,3-dihydropyran",25,0.00445914,PET
dimethylformamide,160,39.83106639,PET
dimethylformamide,155,36.94702609,PET
dimethylformamide,150,34.10709517,PET
dimethylformamide,145,31.31764783,PET
dimethylformamide,140,28.59092222,PET
dimethylformamide,135,25.93725541,PET
dimethylformamide,130,23.36647481,PET
dimethylformamide,125,20.89048601,PET
dimethylformamide,120,18.52086789,PET
dimethylformamide,115,16.26926947,PET
dimethylformamide,110,14.14751849,PET
dimethylformamide,105,12.16783596,PET
dimethylformamide,100,10.34035522,PET
dimethylformamide,95,8.67456551,PET
dimethylformamide,90,7.17738722,PET
dimethylformamide,85,5.85300758,PET
dimethylformamide,80,4.70138165,PET
dimethylformamide,75,3.7183258,PET
dimethylformamide,70,2.89538691,PET
dimethylformamide,65,2.21999362,PET
dimethylformamide,60,1.67661124,PET
dimethylformamide,55,1.24783628,PET
dimethylformamide,50,0.9157259,PET
dimethylformamide,45,0.66296914,PET
dimethylformamide,40,0.47375307,PET
dimethylformamide,35,0.33427649,PET
dimethylformamide,30,0.2329501,PET
dimethylformamide,25,0.16035057,PET
dimethylsulfoxide,160,24.69679228,PET
dimethylsulfoxide,155,22.09077936,PET
dimethylsulfoxide,150,19.64976552,PET
dimethylsulfoxide,145,17.37223841,PET
dimethylsulfoxide,140,15.25619905,PET
dimethylsulfoxide,135,13.29994861,PET
dimethylsulfoxide,130,11.50223789,PET
dimethylsulfoxide,125,9.86127996,PET
dimethylsulfoxide,120,8.37524572,PET
dimethylsulfoxide,115,7.04151497,PET
dimethylsulfoxide,110,5.85670576,PET
dimethylsulfoxide,105,4.8163677,PET
dimethylsulfoxide,100,3.91435604,PET
dimethylsulfoxide,95,3.14288471,PET
dimethylsulfoxide,90,2.49262911,PET
dimethylsulfoxide,85,1.9526927,PET
dimethylsulfoxide,80,1.51117628,PET
dimethylsulfoxide,75,1.15559498,PET
dimethylsulfoxide,70,0.87345101,PET
dimethylsulfoxide,65,0.65276883,PET
dimethylsulfoxide,60,0.48251568,PET
dimethylsulfoxide,55,0.35287208,PET
dimethylsulfoxide,50,0.25537042,PET
dimethylsulfoxide,45,0.18290686,PET
dimethylsulfoxide,40,0.12966294,PET
dimethylsulfoxide,35,0.0909726,PET
dimethylsulfoxide,30,0.06316259,PET
dimethylsulfoxide,25,0.04338854,PET
diphenylether,160,9.88174847,PET
diphenylether,155,8.06824618,PET
diphenylether,150,6.51372286,PET
diphenylether,145,5.20055199,PET
diphenylether,140,4.10713805,PET
diphenylether,135,3.20934359,PET
diphenylether,130,2.48201885,PET
diphenylether,125,1.90030636,PET
diphenylether,120,1.44069931,PET
diphenylether,115,1.08176461,PET
diphenylether,110,0.80454804,PET
diphenylether,105,0.59272233,PET
diphenylether,100,0.43253432,PET
diphenylether,95,0.31262242,PET
diphenylether,90,0.22375991,PET
diphenylether,85,0.15856713,PET
diphenylether,80,0.11122307,PET
diphenylether,75,0.07719459,PET
diphenylether,70,0.05299413,PET
diphenylether,65,0.03596965,PET
diphenylether,60,0.02412746,PET
diphenylether,55,0.01598583,PET
diphenylether,50,0.01045608,PET
diphenylether,45,0.00674771,PET
diphenylether,40,0.0042936,PET
diphenylether,35,0.00269196,PET
diphenylether,30,0.0016618,PET
diphenylether,25,0.00100928,PET
dodecane,160,0.15861315,PET
dodecane,155,0.11471854,PET
dodecane,150,0.08232527,PET
dodecane,145,0.05859545,PET
dodecane,140,0.04134786,PET
dodecane,135,0.02891524,PET
dodecane,130,0.02003131,PET
dodecane,125,0.01374107,PET
dodecane,120,0.00932985,PET
dodecane,115,0.0062673,PET
dodecane,110,0.0041633,PET
dodecane,105,0.00273361,PET
dodecane,100,0.00177321,PET
dodecane,95,0.00113574,PET
dodecane,90,0.00071788,PET
dodecane,85,0.00044753,PET
dodecane,80,0.00027499,PET
dodecane,75,0.00016644,PET
dodecane,70,9.92E-05,PET
dodecane,65,5.81E-05,PET
dodecane,60,3.35E-05,PET
dodecane,55,1.89E-05,PET
dodecane,50,1.05E-05,PET
dodecane,45,5.71E-06,PET
dodecane,40,3.04E-06,PET
dodecane,35,1.59E-06,PET
dodecane,30,8.10E-07,PET
dodecane,25,4.00E-07,PET
ethanol,160,18.81544909,PET
ethanol,155,14.20000211,PET
ethanol,150,10.40609608,PET
ethanol,145,7.42707288,PET
ethanol,140,5.17982686,PET
ethanol,135,3.54093545,PET
ethanol,130,2.37865362,PET
ethanol,125,1.57321803,PET
ethanol,120,1.02582826,PET
ethanol,115,0.66003647,PET
ethanol,110,0.41927107,PET
ethanol,105,0.26301019,PET