Solvent,Temperature (°C),Solubility (%),Polymer
propyleneglycol,135,8.28708667,HDPE
propyleneglycol,130,4.54810463,HDPE
propyleneglycol,125,2.6357574,HDPE
propyleneglycol,120,1.55746089,HDPE
propyleneglycol,115,0.92501239,HDPE
propyleneglycol,110,0.54813885,HDPE
propyleneglycol,105,0.32268182,HDPE
propyleneglycol,100,0.18819578,HDPE
propyleneglycol,95,0.10853996,HDPE
propyleneglycol,90,0.06182002,HDPE
propyleneglycol,85,0.03473558,HDPE
propyleneglycol,80,0.01923746,HDPE
propyleneglycol,75,0.01049328,HDPE
propyleneglycol,70,0.00563308,HDPE
propyleneglycol,65,0.00297397,HDPE
propyleneglycol,60,0.00154298,HDPE
propyleneglycol,55,0.00078611,HDPE
propyleneglycol,50,0.00039296,HDPE
propyleneglycol,45,0.00019257,HDPE
propyleneglycol,40,9.24E-05,HDPE
propyleneglycol,35,4.34E-05,HDPE
propyleneglycol,30,1.99E-05,HDPE
propyleneglycol,25,8.93E-06,HDPE
tert-butanol,160,99.99831624,HDPE
tert-butanol,155,99.99678154,HDPE
tert-butanol,150,99.99387673,HDPE
tert-butanol,145,99.98847284,HDPE
tert-butanol,140,99.97863899,HDPE
tert-butanol,135,68.78460966,HDPE
tert-butanol,130,37.67604095,HDPE
tert-butanol,125,21.10497737,HDPE
tert-butanol,120,12.3150604,HDPE
tert-butanol,115,7.32876306,HDPE
tert-butanol,110,4.38993136,HDPE
tert-butanol,105,2.62662078,HDPE
tert-butanol,100,1.56243501,HDPE
tert-butanol,95,0.9211569,HDPE
tert-butanol,90,0.53711315,HDPE
tert-butanol,85,0.30925784,HDPE
tert-butanol,80,0.17561887,HDPE
tert-butanol,75,0.09826072,HDPE
tert-butanol,70,0.05412033,HDPE
tert-butanol,65,0.02931914,HDPE
tert-butanol,60,0.01560985,HDPE
tert-butanol,55,0.00816104,HDPE
tert-butanol,50,0.00418622,HDPE
tert-butanol,45,0.00210494,HDPE
tert-butanol,40,0.00103655,HDPE
tert-butanol,35,0.00049939,HDPE
tert-butanol,30,0.00023514,HDPE
tert-butanol,25,0.00010808,HDPE
thf,160,99.99745211,HDPE
thf,155,99.99704884,HDPE
thf,150,99.99657869,HDPE
thf,145,99.99603024,HDPE
thf,140,99.99539008,HDPE
thf,135,78.47293265,HDPE
thf,130,56.64129839,HDPE
thf,125,38.1551168,HDPE
thf,120,24.71451795,HDPE
thf,115,15.68959569,HDPE
thf,110,9.82983766,HDPE
thf,105,6.08753041,HDPE
thf,100,3.72584738,HDPE
thf,95,2.25226731,HDPE
thf,90,1.34370027,HDPE
thf,85,0.79058348,HDPE
thf,80,0.45839107,HDPE
thf,75,0.26172785,HDPE
thf,70,0.14705115,HDPE
thf,65,0.08123874,HDPE
thf,60,0.04409546,HDPE
thf,55,0.02349658,HDPE
thf,50,0.01228066,HDPE
thf,45,0.00628998,HDPE
thf,40,0.00315405,HDPE
thf,35,0.0015468,HDPE
thf,30,0.0007411,HDPE
thf,25,0.00034648,HDPE
thp,160,99.99947131,HDPE
thp,155,99.99939852,HDPE
thp,150,99.99931462,HDPE
thp,145,99.99921775,HDPE
thp,140,99.99910573,HDPE
thp,135,75.7041778,HDPE
thp,130,53.53390582,HDPE
thp,125,35.92338033,HDPE
thp,120,23.34488356,HDPE
thp,115,14.88145256,HDPE
thp,110,9.3563805,HDPE
thp,105,5.81152167,HDPE
thp,100,3.5663965,HDPE
thp,95,2.16133131,HDPE
thp,90,1.29264431,HDPE
thp,85,0.76242042,HDPE
thp,80,0.44315382,HDPE
thp,75,0.25365465,HDPE
thp,70,0.14286912,HDPE
thp,65,0.07912455,HDPE
thp,60,0.04305458,HDPE
thp,55,0.02299878,HDPE
thp,50,0.01205011,HDPE
thp,45,0.006187,HDPE
thp,40,0.00310993,HDPE
thp,35,0.00152882,HDPE
thp,30,0.0007342,HDPE
thp,25,0.00034405,HDPE
toluene,160,99.99270661,HDPE
toluene,155,99.99159424,HDPE
toluene,150,99.99030006,HDPE
toluene,145,99.9887926,HDPE
toluene,140,99.98703468,HDPE
toluene,135,73.80265962,HDPE
toluene,130,49.93084658,HDPE
toluene,125,31.7965022,HDPE
toluene,120,19.7384397,HDPE
toluene,115,12.15410884,HDPE
toluene,110,7.45159929,HDPE
toluene,105,4.54364148,HDPE
toluene,100,2.74940882,HDPE
toluene,95,1.64759984,HDPE
toluene,90,0.97606853,HDPE
toluene,85,0.57082079,HDPE
toluene,80,0.32914416,HDPE
toluene,75,0.1869321,HDPE
toluene,70,0.10446697,HDPE
toluene,65,0.05739571,HDPE
toluene,60,0.03097419,HDPE
toluene,55,0.01640409,HDPE
toluene,50,0.00851797,HDPE
toluene,45,0.00433246,HDPE
toluene,40,0.0021563,HDPE
toluene,35,0.00104905,HDPE
toluene,30,0.00049831,HDPE
toluene,25,0.00023083,HDPE
triethylamine,160,99.99964299,HDPE
triethylamine,155,99.9996063,HDPE
triethylamine,150,99.99956575,HDPE
triethylamine,145,99.99952091,HDPE
triethylamine,140,99.99947132,HDPE
triethylamine,135,73.66225935,HDPE
triethylamine,130,52.31369592,HDPE
triethylamine,125,36.01073051,HDPE
triethylamine,120,24.14756569,HDPE
triethylamine,115,15.83792816,HDPE
triethylamine,110,10.19044918,HDPE
triethylamine,105,6.4450701,HDPE
triethylamine,100,4.01180613,HDPE
triethylamine,95,2.45935237,HDPE
triethylamine,90,1.48518271,HDPE
triethylamine,85,0.88348077,HDPE
triethylamine,80,0.51755767,HDPE
triethylamine,75,0.29845791,HDPE
triethylamine,70,0.16933136,HDPE
triethylamine,65,0.09446026,HDPE
triethylamine,60,0.05177411,HDPE
triethylamine,55,0.02786079,HDPE
triethylamine,50,0.01470719,HDPE
triethylamine,45,0.00760909,HDPE
triethylamine,40,0.00385468,HDPE
triethylamine,35,0.00191008,HDPE
triethylamine,30,0.0009248,HDPE
triethylamine,25,0.00043699,HDPE
h2o,160,0.00316317,HDPE
h2o,155,0.00271978,HDPE
h2o,150,0.00233824,HDPE
h2o,145,0.00201034,HDPE
h2o,140,0.00172885,HDPE
h2o,135,0.00099601,HDPE
h2o,130,0.00056854,HDPE
h2o,125,0.00032149,HDPE
h2o,120,0.00018006,HDPE
h2o,115,9.99E-05,HDPE
h2o,110,5.48E-05,HDPE
h2o,105,2.98E-05,HDPE
h2o,100,1.60E-05,HDPE
h2o,95,8.52E-06,HDPE
h2o,90,4.48E-06,HDPE
h2o,85,2.33E-06,HDPE
h2o,80,1.20E-06,HDPE
h2o,75,6.10E-07,HDPE
h2o,70,3.00E-07,HDPE
h2o,65,1.50E-07,HDPE
h2o,60,7.00E-08,HDPE
h2o,55,4.00E-08,HDPE
h2o,50,2.00E-08,HDPE
h2o,45,1.00E-08,HDPE
h2o,40,0,HDPE
h2o,35,0,HDPE
h2o,30,0,HDPE
h2o,25,0,HDPE
"1,4-dimethylbenzene",160,99.99755637,HDPE
"1,4-dimethylbenzene",155,99.99722501,HDPE
"1,4-dimethylbenzene",150,99.99684395,HDPE
"1,4-dimethylbenzene",145,99.99640512,HDPE
"1,4-dimethylbenzene",140,99.99589903,HDPE
"1,4-dimethylbenzene",135,71.2024757,HDPE
"1,4-dimethylbenzene",130,47.33428453,HDPE
"1,4-dimethylbenzene",125,30.22871232,HDPE
"1,4-dimethylbenzene",120,18.97895055,HDPE
"1,4-dimethylbenzene",115,11.82474719,HDPE
"1,4-dimethylbenzene",110,7.32235243,HDPE
"1,4-dimethylbenzene",105,4.50149143,HDPE
"1,4-dimethylbenzene",100,2.74261772,HDPE
"1,4-dimethylbenzene",95,1.65336505,HDPE
"1,4-dimethylbenzene",90,0.98481688,HDPE
"1,4-dimethylbenzene",85,0.57890262,HDPE
"1,4-dimethylbenzene",80,0.33548054,HDPE
"1,4-dimethylbenzene",75,0.1914848,HDPE
"1,4-dimethylbenzene",70,0.10755382,HDPE
"1,4-dimethylbenzene",65,0.05939811,HDPE
"1,4-dimethylbenzene",60,0.03222594,HDPE
"1,4-dimethylbenzene",55,0.01716121,HDPE
"1,4-dimethylbenzene",50,0.00896208,HDPE
"1,4-dimethylbenzene",45,0.00458542,HDPE
"1,4-dimethylbenzene",40,0.00229629,HDPE
"1,4-dimethylbenzene",35,0.00112433,HDPE
"1,4-dimethylbenzene",30,0.00053764,HDPE
"1,4-dimethylbenzene",25,0.00025079,HDPE
"1,2-dimethylbenzene",160,99.99455495,HDPE
"1,2-dimethylbenzene",155,99.99380233,HDPE
"1,2-dimethylbenzene",150,99.99293612,HDPE
"1,2-dimethylbenzene",145,99.99193789,HDPE
"1,2-dimethylbenzene",140,99.99078602,HDPE
"1,2-dimethylbenzene",135,70.96129077,HDPE
"1,2-dimethylbenzene",130,46.69460549,HDPE
"1,2-dimethylbenzene",125,29.45500713,HDPE
"1,2-dimethylbenzene",120,18.30573664,HDPE
"1,2-dimethylbenzene",115,11.32165279,HDPE
"1,2-dimethylbenzene",110,6.97440567,HDPE
"1,2-dimethylbenzene",105,4.2714151,HDPE
"1,2-dimethylbenzene",100,2.59496358,HDPE
"1,2-dimethylbenzene",95,1.56072821,HDPE
"1,2-dimethylbenzene",90,0.92779427,HDPE
"1,2-dimethylbenzene",85,0.54440554,HDPE
"1,2-dimethylbenzene",80,0.31495484,HDPE
"1,2-dimethylbenzene",75,0.17947202,HDPE
"1,2-dimethylbenzene",70,0.10064003,HDPE
"1,2-dimethylbenzene",65,0.05548687,HDPE
"1,2-dimethylbenzene",60,0.03005239,HDPE
"1,2-dimethylbenzene",55,0.01597553,HDPE
"1,2-dimethylbenzene",50,0.0083277,HDPE
"1,2-dimethylbenzene",45,0.00425281,HDPE
"1,2-dimethylbenzene",40,0.00212557,HDPE
"1,2-dimethylbenzene",35,0.00103863,HDPE
"1,2-dimethylbenzene",30,0.00049562,HDPE
"1,2-dimethylbenzene",25,0.00023068,HDPE
propanol,160,99.9954608,LDPE
propanol,155,99.98915941,LDPE
propanol,150,99.97519755,LDPE
propanol,145,99.9998018,LDPE
propanol,140,96.81925961,LDPE
propanol,135,77.49259376,LDPE
propanol,130,49.55944946,LDPE
propanol,125,31.68410362,LDPE
propanol,120,21.42853006,LDPE
propanol,115,14.95175889,LDPE
propanol,110,10.60310738,LDPE
propanol,105,7.5796166,LDPE
propanol,100,5.43489361,LDPE
propanol,95,3.89638795,LDPE
propanol,90,2.78661038,LDPE
propanol,85,1.9847496,LDPE
propanol,80,1.40599804,LDPE
propanol,75,0.98959156,LDPE
propanol,70,0.69141025,LDPE
propanol,65,0.47917057,LDPE
propanol,60,0.32916891,LDPE
propanol,55,0.22399759,LDPE
propanol,50,0.15090299,LDPE
propanol,45,0.10058238,LDPE
propanol,40,0.06629102,LDPE
propanol,35,0.0431748,LDPE
propanol,30,0.02776984,LDPE
propanol,25,0.01762771,LDPE
2-propanol,160,99.9990062,LDPE
2-propanol,155,99.99743405,LDPE
2-propanol,150,99.99355529,LDPE
2-propanol,145,99.9844744,LDPE
2-propanol,140,96.85729306,LDPE
2-propanol,135,78.74696087,LDPE
2-propanol,130,52.37347885,LDPE
2-propanol,125,33.78300555,LDPE
2-propanol,120,22.84377733,LDPE
2-propanol,115,15.9216202,LDPE
2-propanol,110,11.27997228,LDPE
2-propanol,105,8.05756915,LDPE
2-propanol,100,5.77454757,LDPE
2-propanol,95,4.13835282,LDPE
2-propanol,90,2.95890263,LDPE
2-propanol,85,2.10710558,LDPE
2-propanol,80,1.4925106,LDPE
2-propanol,75,1.05040798,LDPE
2-propanol,70,0.73386671,LDPE
2-propanol,65,0.50857481,LDPE
2-propanol,60,0.34935401,LDPE
2-propanol,55,0.2377207,LDPE
2-propanol,50,0.160136,LDPE
2-propanol,45,0.10672544,LDPE
2-propanol,40,0.07032995,LDPE
2-propanol,35,0.04579707,LDPE
2-propanol,30,0.02944984,LDPE
2-propanol,25,0.01868902,LDPE
propanone,160,99.99870977,LDPE
propanone,155,99.99805819,LDPE
propanone,150,99.99706304,LDPE
propanone,145,99.99554291,LDPE
propanone,140,97.20427321,LDPE
propanone,135,84.78415403,LDPE
propanone,130,65.34310102,LDPE
propanone,125,42.79448614,LDPE
propanone,120,28.3688912,LDPE
propanone,115,19.71472549,LDPE
propanone,110,14.05638281,LDPE
propanone,105,10.14676264,LDPE
propanone,100,7.36128252,LDPE
propanone,95,5.34362351,LDPE
propanone,90,3.87015826,LDPE
propanone,85,2.79105507,LDPE
propanone,80,2.00131879,LDPE
propanone,75,1.42520459,LDPE
propanone,70,1.00703763,LDPE
propanone,65,0.70546646,LDPE
propanone,60,0.48962362,LDPE
propanone,55,0.33645043,LDPE
propanone,50,0.22876222,LDPE
propanone,45,0.153812,LDPE
propanone,40,0.10220638,LDPE
propanone,35,0.06707846,LDPE
propanone,30,0.04345436,LDPE
propanone,25,0.02776809,LDPE
acetylacetone,160,99.99846756,LDPE
acetylacetone,155,99.99467652,LDPE
acetylacetone,150,99.98191042,LDPE
acetylacetone,145,99.94201025,LDPE
acetylacetone,140,94.96437611,LDPE
acetylacetone,135,47.89003164,LDPE
acetylacetone,130,19.10431898,LDPE
acetylacetone,125,12.08071819,LDPE
acetylacetone,120,8.23828773,LDPE
acetylacetone,115,5.79438729,LDPE
acetylacetone,110,4.13555631,LDPE
acetylacetone,105,2.97100385,LDPE
acetylacetone,100,2.13824661,LDPE
acetylacetone,95,1.536948,LDPE
acetylacetone,90,1.10094192,LDPE
acetylacetone,85,0.7846421,LDPE
acetylacetone,80,0.55568915,LDPE
acetylacetone,75,0.39065789,LDPE
acetylacetone,70,0.27238673,LDPE
acetylacetone,65,0.18822053,LDPE
acetylacetone,60,0.12880665,LDPE
acetylacetone,55,0.08724066,LDPE
acetylacetone,50,0.05844401,LDPE
acetylacetone,45,0.03870241,LDPE
acetylacetone,40,0.0253192,LDPE
acetylacetone,35,0.01635342,LDPE
acetylacetone,30,0.0104217,LDPE
acetylacetone,25,0.0065487,LDPE
benzene,160,99.97230219,LDPE
benzene,155,99.96755501,LDPE
benzene,150,99.96196243,LDPE
benzene,145,99.95536891,LDPE
benzene,140,96.37911798,LDPE
benzene,135,83.25031897,LDPE
benzene,130,69.37361187,LDPE
benzene,125,55.4483076,LDPE
benzene,120,42.56958272,LDPE
benzene,115,31.72028495,LDPE
benzene,110,23.24322934,LDPE
benzene,105,16.90194695,LDPE
benzene,100,12.24757853,LDPE
benzene,95,8.852481,LDPE
benzene,90,6.37932156,LDPE
benzene,85,4.57866533,LDPE
benzene,80,3.26930928,LDPE
benzene,75,2.3197109,LDPE
benzene,70,1.63384582,LDPE
benzene,65,1.14119993,LDPE
benzene,60,0.78975318,LDPE
benzene,55,0.54104073,LDPE
benzene,50,0.36662799,LDPE
benzene,45,0.24554889,LDPE
benzene,40,0.16241723,LDPE
benzene,35,0.10601646,LDPE
benzene,30,0.06823734,LDPE
benzene,25,0.04327426,LDPE
chcl3,160,99.97374188,LDPE
chcl3,155,99.96906114,LDPE
chcl3,150,99.9635267,LDPE
chcl3,145,99.95698027,LDPE
chcl3,140,94.57649377,LDPE
chcl3,135,76.59693191,LDPE
chcl3,130,60.03169759,LDPE
chcl3,125,45.41994322,LDPE
chcl3,120,33.32069849,LDPE
chcl3,115,23.96718718,LDPE
chcl3,110,17.10511605,LDPE
chcl3,105,12.20136573,LDPE
chcl3,100,8.72016853,LDPE
chcl3,95,6.2418851,LDPE
chcl3,90,4.46815501,LDPE
chcl3,85,3.19294823,LDPE
chcl3,80,2.27385248,LDPE
chcl3,75,1.61127792,LDPE
chcl3,70,1.13455519,LDPE
chcl3,65,0.79288014,LDPE
chcl3,60,0.54935528,LDPE
chcl3,55,0.37700218,LDPE
chcl3,50,0.25603127,LDPE
chcl3,45,0.1719243,LDPE
chcl3,40,0.11405838,LDPE
chcl3,35,0.07469995,LDPE
chcl3,30,0.04825857,LDPE
chcl3,25,0.03072859,LDPE
cyclohexane,160,100,LDPE
cyclohexane,155,100,LDPE
cyclohexane,150,100,LDPE
cyclohexane,145,100,LDPE
cyclohexane,140,96.16870267,LDPE
cyclohexane,135,83.32679225,LDPE
cyclohexane,130,71.21814911,LDPE
cyclohexane,125,60.02294147,LDPE
cyclohexane,120,49.87644667,LDPE
cyclohexane,115,40.86279206,LDPE
cyclohexane,110,33.01312488,LDPE
cyclohexane,105,26.30879026,LDPE
cyclohexane,100,20.68915496,LDPE
cyclohexane,95,16.06226151,LDPE
cyclohexane,90,12.31656302,LDPE
cyclohexane,85,9.33195785,LDPE
cyclohexane,80,6.98889906,LDPE
cyclohexane,75,5.17501443,LDPE
cyclohexane,70,3.78923575,LDPE
cyclohexane,65,2.74381336,LDPE
cyclohexane,60,1.96472443,LDPE
cyclohexane,55,1.39101595,LDPE
cyclohexane,50,0.97352282,LDPE
cyclohexane,45,0.67329896,LDPE
cyclohexane,40,0.45999026,LDPE
cyclohexane,35,0.31029061,LDPE
cyclohexane,30,0.20655683,LDPE
cyclohexane,25,0.13561429,LDPE
cyclohexanol,160,99.99338911,LDPE
cyclohexanol,155,99.98782485,LDPE
cyclohexanol,150,99.9778293,LDPE
cyclohexanol,145,99.96025345,LDPE
cyclohexanol,140,94.93858632,LDPE
cyclohexanol,135,71.65233222,LDPE
cyclohexanol,130,48.10556312,LDPE
cyclohexanol,125,32.15281137,LDPE
cyclohexanol,120,22.12667521,LDPE
cyclohexanol,115,15.57497551,LDPE
cyclohexanol,110,11.11547851,LDPE
cyclohexanol,105,7.99252105,LDPE
cyclohexanol,100,5.76521696,LDPE
cyclohexanol,95,4.15908148,LDPE
cyclohexanol,90,2.99401165,LDPE
cyclohexanol,85,2.14704217,LDPE
cyclohexanol,80,1.53168576,LDPE
cyclohexanol,75,1.08582401,LDPE
cyclohexanol,70,0.76419428,LDPE
cyclohexanol,65,0.53351773,LDPE
cyclohexanol,60,0.36921348,LDPE
cyclohexanol,55,0.25310293,LDPE
cyclohexanol,50,0.17176319,LDPE
cyclohexanol,45,0.11532048,LDPE
cyclohexanol,40,0.07655225,LDPE
cyclohexanol,35,0.05021264,LDPE
cyclohexanol,30,0.03252314,LDPE
cyclohexanol,25,0.02078765,LDPE
"2,3-dihydropyran",160,99.99023141,LDPE
"2,3-dihydropyran",155,99.98854447,LDPE
"2,3-dihydropyran",150,99.98655244,LDPE
"2,3-dihydropyran",145,99.9841981,LDPE
"2,3-dihydropyran",140,96.11480717,LDPE
"2,3-dihydropyran",135,82.2900867,LDPE
"2,3-dihydropyran",130,68.17771714,LDPE
"2,3-dihydropyran",125,54.5382898,LDPE
"2,3-dihydropyran",120,42.26938077,LDPE
"2,3-dihydropyran",115,32.00387367,LDPE
"2,3-dihydropyran",110,23.8804354,LDPE
"2,3-dihydropyran",105,17.66709284,LDPE
"2,3-dihydropyran",100,12.99796284,LDPE
"2,3-dihydropyran",95,9.51891804,LDPE
"2,3-dihydropyran",90,6.93830766,LDPE
"2,3-dihydropyran",85,5.03049008,LDPE
"2,3-dihydropyran",80,3.62506413,LDPE
"2,3-dihydropyran",75,2.59421192,LDPE
"2,3-dihydropyran",70,1.84213245,LDPE
"2,3-dihydropyran",65,1.29693252,LDPE
"2,3-dihydropyran",60,0.90461674,LDPE
"2,3-dihydropyran",55,0.62466188,LDPE
"2,3-dihydropyran",50,0.42672659,LDPE
"2,3-dihydropyran",45,0.28818707,LDPE
"2,3-dihydropyran",40,0.1922719,LDPE
"2,3-dihydropyran",35,0.12663874,LDPE
"2,3-dihydropyran",30,0.0822835,LDPE
"2,3-dihydropyran",25,0.05270232,LDPE
dimethylformamide,160,99.96804677,LDPE
dimethylformamide,155,99.99984902,LDPE
dimethylformamide,150,99.9996908,LDPE
dimethylformamide,145,99.99934177,LDPE
dimethylformamide,140,96.36381988,LDPE
dimethylformamide,135,74.95579073,LDPE
dimethylformamide,130,37.04631432,LDPE
dimethylformamide,125,23.32337531,LDPE
dimethylformamide,120,16.20802521,LDPE
dimethylformamide,115,11.66731485,LDPE
dimethylformamide,110,8.528106,LDPE
dimethylformamide,105,6.2726896,LDPE
dimethylformamide,100,4.61983624,LDPE
dimethylformamide,95,3.39663629,LDPE
dimethylformamide,90,2.48790947,LDPE
dimethylformamide,85,1.81279981,LDPE
dimethylformamide,80,1.3125491,LDPE
dimethylformamide,75,0.94351577,LDPE
dimethylformamide,70,0.67286981,LDPE
dimethylformamide,65,0.47575334,LDPE
dimethylformamide,60,0.3333095,LDPE
dimethylformamide,55,0.23125404,LDPE
dimethylformamide,50,0.15880888,LDPE
dimethylformamide,45,0.10788813,LDPE
dimethylformamide,40,0.07246906,LDPE
dimethylformamide,35,0.04810296,LDPE
dimethylformamide,30,0.03153422,LDPE
dimethylformamide,25,0.02040432,LDPE
dimethylsulfoxide,160,28.3869214,LDPE
dimethylsulfoxide,155,26.11645193,LDPE
dimethylsulfoxide,150,24.34474758,LDPE
dimethylsulfoxide,145,22.87109505,LDPE
dimethylsulfoxide,140,19.02462535,LDPE
dimethylsulfoxide,135,12.9771256,LDPE
dimethylsulfoxide,130,9.42862841,LDPE
dimethylsulfoxide,125,7.01176242,LDPE
dimethylsulfoxide,120,5.26587355,LDPE
dimethylsulfoxide,115,3.96800176,LDPE
dimethylsulfoxide,110,2.9891074,LDPE
dimethylsulfoxide,105,2.24584529,LDPE
dimethylsulfoxide,100,1.68040296,LDPE
dimethylsulfoxide,95,1.25072615,LDPE
dimethylsulfoxide,90,0.92526649,LDPE
dimethylsulfoxide,85,0.67989975,LDPE
dimethylsulfoxide,80,0.49597918,LDPE
dimethylsulfoxide,75,0.3590219,LDPE
dimethylsulfoxide,70,0.25777142,LDPE
dimethylsulfoxide,65,0.18349854,LDPE
dimethylsulfoxide,60,0.1294632,LDPE
dimethylsulfoxide,55,0.09049141,LDPE
dimethylsulfoxide,50,0.06263878,LDPE
dimethylsulfoxide,45,0.04292154,LDPE
dimethylsulfoxide,40,0.02910153,LDPE
dimethylsulfoxide,35,0.01951494,LDPE
dimethylsulfoxide,30,0.01293659,LDPE
dimethylsulfoxide,25,0.00847325,LDPE
diphenylether,160,99.94279676,LDPE
diphenylether,155,99.92940787,LDPE
diphenylether,150,99.91280543,LDPE
diphenylether,145,99.89221082,LDPE
diphenylether,140,92.13825494,LDPE
diphenylether,135,65.02431488,LDPE
diphenylether,130,42.3533039,LDPE
diphenylether,125,27.53814128,LDPE
diphenylether,120,18.53439494,LDPE
diphenylether,115,12.85175817,LDPE
diphenylether,110,9.08591697,LDPE
diphenylether,105,6.4972168,LDPE
diphenylether,100,4.67326231,LDPE
diphenylether,95,3.36775321,LDPE
diphenylether,90,2.42458179,LDPE
diphenylether,85,1.74004461,LDPE
diphenylether,80,1.24268286,LDPE
diphenylether,75,0.88191,LDPE
diphenylether,70,0.62120726,LDPE
diphenylether,65,0.43385903,LDPE
diphenylether,60,0.30016513,LDPE
diphenylether,55,0.20554353,LDPE
diphenylether,50,0.13919813,LDPE
diphenylether,45,0.09315705,LDPE
diphenylether,40,0.06156343,LDPE
diphenylether,35,0.04014448,LDPE
diphenylether,30,0.02581014,LDPE
diphenylether,25,0.01634826,LDPE
dodecane,160,100,LDPE
dodecane,155,100,LDPE
dodecane,150,100,LDPE
dodecane,145,100,LDPE
dodecane,140,92.52845825,LDPE
dodecane,135,71.03872357,LDPE
dodecane,130,54.70585063,LDPE
dodecane,125,42.1582296,LDPE
dodecane,120,32.45598545,LDPE
dodecane,115,24.92820104,LDPE
dodecane,110,19.08099568,LDPE
dodecane,105,14.54225715,LDPE
dodecane,100,11.02667184,LDPE
dodecane,95,8.31264839,LDPE
dodecane,90,6.22652535,LDPE
dodecane,85,4.63140882,LDPE
dodecane,80,3.4190503,LDPE
dodecane,75,2.50378108,LDPE
dodecane,70,1.81787747,LDPE
dodecane,65,1.30795006,LDPE
dodecane,60,0.932086,LDPE
dodecane,55,0.65756016,LDPE
dodecane,50,0.45898679,LDPE
dodecane,45,0.31681991,LDPE
dodecane,40,0.21613474,LDPE
dodecane,35,0.14563866,LDPE
dodecane,30,0.09687123,LDPE
dodecane,25,0.06356077,LDPE
ethanol,160,99.99742421,LDPE
ethanol,155,99.99132758,LDPE
ethanol,150,99.9734415,LDPE
ethanol,145,99.99956401,LDPE
ethanol,140,97.51797294,LDPE
ethanol,135,79.18197267,LDPE
ethanol,130,42.15306524,LDPE
ethanol,125,25.54427879,LDPE
ethanol,120,17.0417842,LDPE
ethanol,115,11.80650732,LDPE
ethanol,110,8.32504566,LDPE
ethanol,105,5.91872387,LDPE
ethanol,100,4.22044997,LDPE
ethanol,95,3.00841767,LDPE
ethanol,90,2.13885825,LDPE
ethanol,85,1.51415653,LDPE
ethanol,80,1.06599019,LDPE
ethanol,75,0.74556795,LDPE
ethanol,70,0.5176097,LDPE
ethanol,65,0.35643271,LDPE
ethanol,60,0.24328967,LDPE
ethanol,55,0.16450226,LDPE
ethanol,50,0.1101196,LDPE