Solvent,Temperature (°C),Solubility (%),Polymer
chcl3,65,3.86190604,PP
chcl3,60,3.08042863,PP
chcl3,55,2.44608864,PP
chcl3,50,1.93280819,PP
chcl3,45,1.51896996,PP
chcl3,40,1.18666482,PP
chcl3,35,0.92107013,PP
chcl3,30,0.70990988,PP
chcl3,25,0.54301814,PP
cyclohexane,160,81.62826798,PP
cyclohexane,155,78.01920658,PP
cyclohexane,150,74.34650538,PP
cyclohexane,145,70.62050808,PP
cyclohexane,140,66.85299508,PP
cyclohexane,135,63.05687271,PP
cyclohexane,130,59.24626087,PP
cyclohexane,125,55.43647534,PP
cyclohexane,120,51.64397146,PP
cyclohexane,115,47.88623937,PP
cyclohexane,110,44.18164098,PP
cyclohexane,105,40.54918049,PP
cyclohexane,100,37.0082028,PP
cyclohexane,95,33.57801828,PP
cyclohexane,90,30.27740116,PP
cyclohexane,85,27.12434419,PP
cyclohexane,80,24.13509569,PP
cyclohexane,75,21.32394396,PP
cyclohexane,70,18.70261687,PP
cyclohexane,65,16.279849,PP
cyclohexane,60,14.0610754,PP
cyclohexane,55,12.04820425,PP
cyclohexane,50,10.23971051,PP
cyclohexane,45,8.63072274,PP
cyclohexane,40,7.2133723,PP
cyclohexane,35,5.97723994,PP
cyclohexane,30,4.90990963,PP
cyclohexane,25,3.99751845,PP
cyclohexanol,160,69.05168144,PP
cyclohexanol,155,60.30416907,PP
cyclohexanol,150,51.02151819,PP
cyclohexanol,145,42.0559874,PP
cyclohexanol,140,34.15390124,PP
cyclohexanol,135,27.5978733,PP
cyclohexanol,130,22.30720703,PP
cyclohexanol,125,18.0700126,PP
cyclohexanol,120,14.67192093,PP
cyclohexanol,115,11.93459599,PP
cyclohexanol,110,9.71870552,PP
cyclohexanol,105,7.91717017,PP
cyclohexanol,100,6.44760611,PP
cyclohexanol,95,5.24595325,PP
cyclohexanol,90,4.26196871,PP
cyclohexanol,85,3.45577039,PP
cyclohexanol,80,2.79534286,PP
cyclohexanol,75,2.2547989,PP
cyclohexanol,70,1.81300815,PP
cyclohexanol,65,1.45264282,PP
cyclohexanol,60,1.15941758,PP
cyclohexanol,55,0.92151425,PP
cyclohexanol,50,0.72913447,PP
cyclohexanol,45,0.57414114,PP
cyclohexanol,40,0.44977623,PP
cyclohexanol,35,0.35042879,PP
cyclohexanol,30,0.27144571,PP
cyclohexanol,25,0.2089753,PP
"2,3-dihydropyran",160,80.47336132,PP
"2,3-dihydropyran",155,76.31325856,PP
"2,3-dihydropyran",150,71.95188806,PP
"2,3-dihydropyran",145,67.39314372,PP
"2,3-dihydropyran",140,62.64929187,PP
"2,3-dihydropyran",135,57.74476878,PP
"2,3-dihydropyran",130,52.71983519,PP
"2,3-dihydropyran",125,47.6327828,PP
"2,3-dihydropyran",120,42.56076086,PP
"2,3-dihydropyran",115,37.59521891,PP
"2,3-dihydropyran",110,32.83285505,PP
"2,3-dihydropyran",105,28.36320478,PP
"2,3-dihydropyran",100,24.25679541,PP
"2,3-dihydropyran",95,20.5578255,PP
"2,3-dihydropyran",90,17.28302685,PP
"2,3-dihydropyran",85,14.42598237,PP
"2,3-dihydropyran",80,11.9632188,PP
"2,3-dihydropyran",75,9.86128003,PP
"2,3-dihydropyran",70,8.08204743,PP
"2,3-dihydropyran",65,6.58661786,PP
"2,3-dihydropyran",60,5.33759889,PP
"2,3-dihydropyran",55,4.30047164,PP
"2,3-dihydropyran",50,3.44415954,PP
"2,3-dihydropyran",45,2.74111737,PP
"2,3-dihydropyran",40,2.16724555,PP
"2,3-dihydropyran",35,1.70163054,PP
"2,3-dihydropyran",30,1.32624513,PP
"2,3-dihydropyran",25,1.02564007,PP
dimethylformamide,160,69.10030375,PP
dimethylformamide,155,44.854338,PP
dimethylformamide,150,30.89956391,PP
dimethylformamide,145,23.79451501,PP
dimethylformamide,140,19.080953,PP
dimethylformamide,135,15.61097845,PP
dimethylformamide,130,12.91709604,PP
dimethylformamide,125,10.75979041,PP
dimethylformamide,120,8.99771006,PP
dimethylformamide,115,7.53960537,PP
dimethylformamide,110,6.32239996,PP
dimethylformamide,105,5.3004217,PP
dimethylformamide,100,4.43917379,PP
dimethylformamide,95,3.71185017,PP
dimethylformamide,90,3.09709125,PP
dimethylformamide,85,2.57752239,PP
dimethylformamide,80,2.13879576,PP
dimethylformamide,75,1.76891342,PP
dimethylformamide,70,1.45773329,PP
dimethylformamide,65,1.19662483,PP
dimethylformamide,60,0.97820028,PP
dimethylformamide,55,0.79611157,PP
dimethylformamide,50,0.64489134,PP
dimethylformamide,45,0.51982577,PP
dimethylformamide,40,0.41685106,PP
dimethylformamide,35,0.33246725,PP
dimethylformamide,30,0.26366573,PP
dimethylformamide,25,0.20786693,PP
dimethylsulfoxide,160,5.75495379,PP
dimethylsulfoxide,155,4.93422403,PP
dimethylsulfoxide,150,4.23551646,PP
dimethylsulfoxide,145,3.63718226,PP
dimethylsulfoxide,140,3.12273582,PP
dimethylsulfoxide,135,2.67921417,PP
dimethylsulfoxide,130,2.29620725,PP
dimethylsulfoxide,125,1.96518409,PP
dimethylsulfoxide,120,1.67904501,PP
dimethylsulfoxide,115,1.43180028,PP
dimethylsulfoxide,110,1.21834592,PP
dimethylsulfoxide,105,1.03429388,PP
dimethylsulfoxide,100,0.87584623,PP
dimethylsulfoxide,95,0.7396974,PP
dimethylsulfoxide,90,0.62295958,PP
dimethylsulfoxide,85,0.52310248,PP
dimethylsulfoxide,80,0.43790504,PP
dimethylsulfoxide,75,0.3654158,PP
dimethylsulfoxide,70,0.30391985,PP
dimethylsulfoxide,65,0.25191098,PP
dimethylsulfoxide,60,0.20806764,PP
dimethylsulfoxide,55,0.17123214,PP
dimethylsulfoxide,50,0.14039244,PP
dimethylsulfoxide,45,0.11466587,PP
dimethylsulfoxide,40,0.09328478,PP
dimethylsulfoxide,35,0.07558349,PP
dimethylsulfoxide,30,0.06098671,PP
dimethylsulfoxide,25,0.04899895,PP
diphenylether,160,60.25311638,PP
diphenylether,155,52.02582795,PP
diphenylether,150,43.92816314,PP
diphenylether,145,36.37504864,PP
diphenylether,140,29.73042211,PP
diphenylether,135,24.15665337,PP
diphenylether,130,19.61225126,PP
diphenylether,125,15.95029661,PP
diphenylether,120,13.00372577,PP
diphenylether,115,10.62465852,PP
diphenylether,110,8.69408275,PP
diphenylether,105,7.11937277,PP
diphenylether,100,5.8293297,PP
diphenylether,95,4.76893934,PP
diphenylether,90,3.89525275,PP
diphenylether,85,3.17446109,PP
diphenylether,80,2.57962172,PP
diphenylether,75,2.0889978,PP
diphenylether,70,1.68489748,PP
diphenylether,65,1.35279101,PP
diphenylether,60,1.08064322,PP
diphenylether,55,0.8584317,PP
diphenylether,50,0.67776574,PP
diphenylether,45,0.53159786,PP
diphenylether,40,0.41399241,PP
diphenylether,35,0.31994808,PP
diphenylether,30,0.24525138,PP
diphenylether,25,0.1863579,PP
dodecane,160,67.52219035,PP
dodecane,155,62.14487396,PP
dodecane,150,56.97632877,PP
dodecane,145,52.03264053,PP
dodecane,140,47.32747917,PP
dodecane,135,42.8718831,PP
dodecane,130,38.67411685,PP
dodecane,125,34.73960609,PP
dodecane,120,31.07094967,PP
dodecane,115,27.66800471,PP
dodecane,110,24.52803709,PP
dodecane,105,21.64592738,PP
dodecane,100,19.01442047,PP
dodecane,95,16.62440614,PP
dodecane,90,14.46521833,PP
dodecane,85,12.5249412,PP
dodecane,80,10.79071161,PP
dodecane,75,9.24900923,PP
dodecane,70,7.88592733,PP
dodecane,65,6.68741912,PP
dodecane,60,5.63951624,PP
dodecane,55,4.72851772,PP
dodecane,50,3.94114869,PP
dodecane,45,3.26468973,PP
dodecane,40,2.68707802,PP
dodecane,35,2.19698253,PP
dodecane,30,1.78385544,PP
dodecane,25,1.43796262,PP
ethanol,160,76.43528182,PP
ethanol,155,53.14876297,PP
ethanol,150,33.58759955,PP
ethanol,145,24.25317258,PP
ethanol,140,18.40069389,PP
ethanol,135,14.29541815,PP
ethanol,130,11.25356686,PP
ethanol,125,8.92804767,PP
ethanol,120,7.11552333,PP
ethanol,115,5.68511656,PP
ethanol,110,4.54704373,PP
ethanol,105,3.63677083,PP
ethanol,100,2.9063783,PP
ethanol,95,2.31931541,PP
ethanol,90,1.84720703,PP
ethanol,85,1.46767205,PP
ethanol,80,1.16288635,PP
ethanol,75,0.91853564,PP
ethanol,70,0.72305941,PP
ethanol,65,0.56708658,PP
ethanol,60,0.4430017,PP
ethanol,55,0.34461041,PP
ethanol,50,0.26687334,PP
ethanol,45,0.20569373,PP
ethanol,40,0.15774584,PP
ethanol,35,0.12033519,PP
ethanol,30,0.09128422,PP
ethanol,25,0.06883819,PP
ethylacetate,160,77.03747112,PP
ethylacetate,155,71.29156241,PP
ethylacetate,150,64.89730139,PP
ethylacetate,145,57.88296886,PP
ethylacetate,140,50.44109721,PP
ethylacetate,135,42.97142867,PP
ethylacetate,130,35.96338061,PP
ethylacetate,125,29.77354294,PP
ethylacetate,120,24.52338977,PP
ethylacetate,115,20.16257705,PP
ethylacetate,110,16.5700857,PP
ethylacetate,105,13.61550734,PP
ethylacetate,100,11.18302772,PP
ethylacetate,95,9.17679535,PP
ethylacetate,90,7.51950455,PP
ethylacetate,85,6.14901764,PP
ethylacetate,80,5.01537677,PP
ethylacetate,75,4.07810416,PP
ethylacetate,70,3.30410843,PP
ethylacetate,65,2.66617801,PP
ethylacetate,60,2.14173422,PP
ethylacetate,55,1.7119611,PP
ethylacetate,50,1.36109552,PP
ethylacetate,45,1.07588693,PP
ethylacetate,40,0.84517466,PP
ethylacetate,35,0.65954665,PP
ethylacetate,30,0.51106928,PP
ethylacetate,25,0.39306303,PP
glycol,160,0.50673517,PP
glycol,155,0.40705001,PP
glycol,150,0.32606478,PP
glycol,145,0.26040305,PP
glycol,140,0.20729397,PP
glycol,135,0.16445709,PP
glycol,130,0.13001173,PP
glycol,125,0.10240596,PP
glycol,120,0.08035965,PP
glycol,115,0.06281821,PP
glycol,110,0.04891457,PP
glycol,105,0.03793776,PP
glycol,100,0.02930657,PP
glycol,95,0.02254758,PP
glycol,90,0.01727666,PP
glycol,85,0.01318343,PP
glycol,80,0.01001817,PP
glycol,75,0.0075809,PP
glycol,70,0.00571221,PP
glycol,65,0.00428561,PP
glycol,60,0.00320121,PP
glycol,55,0.00238051,PP
glycol,50,0.00176212,PP
glycol,45,0.00129825,PP
glycol,40,0.00095185,PP
glycol,35,0.00069438,PP
glycol,30,0.00050391,PP
glycol,25,0.0003637,PP
n-heptane,160,78.52434295,PP
n-heptane,155,74.40579365,PP
n-heptane,150,70.25283191,PP
n-heptane,145,66.08192099,PP
n-heptane,140,61.91093748,PP
n-heptane,135,57.75899224,PP
n-heptane,130,53.64622108,PP
n-heptane,125,49.59350586,PP
n-heptane,120,45.62212516,PP
n-heptane,115,41.75338342,PP
n-heptane,110,38.00795053,PP
n-heptane,105,34.40565892,PP
n-heptane,100,30.96476052,PP
n-heptane,95,27.7014753,PP
n-heptane,90,24.62952661,PP
n-heptane,85,21.75975306,PP
n-heptane,80,19.09982443,PP
n-heptane,75,16.65408265,PP
n-heptane,70,14.42351893,PP
n-heptane,65,12.40588233,PP
n-heptane,60,10.59594091,PP
n-heptane,55,8.98578721,PP
n-heptane,50,7.5652905,PP
n-heptane,45,6.32255584,PP
n-heptane,40,5.24440938,PP
n-heptane,35,4.31687218,PP
n-heptane,30,3.52560001,PP
n-heptane,25,2.85627243,PP
hexane,160,81.11272538,PP
hexane,155,77.38783998,PP
hexane,150,73.59444914,PP
hexane,145,69.74473195,PP
hexane,140,65.85243462,PP
hexane,135,61.93288016,PP
hexane,130,58.00293221,PP
hexane,125,54.08090149,PP
hexane,120,50.18638387,PP
hexane,115,46.34002083,PP
hexane,110,42.56317607,PP
hexane,105,38.87752746,PP
hexane,100,35.30458048,PP
hexane,95,31.86511772,PP
hexane,90,28.57860819,PP
hexane,85,25.46260863,PP
hexane,80,22.5322145,PP
hexane,75,19.7994792,PP
hexane,70,17.27317489,PP
hexane,65,14.95843909,PP
hexane,60,12.85673356,PP
hexane,55,10.96593892,PP
hexane,50,9.28060932,PP
hexane,45,7.79236072,PP
hexane,40,6.49037311,PP
hexane,35,5.36192264,PP
hexane,30,4.39296782,PP
hexane,25,3.5686969,PP
isopropylamine,160,84.48713424,PP
isopropylamine,155,80.62864426,PP
isopropylamine,150,76.34465427,PP
isopropylamine,145,71.60555958,PP
isopropylamine,140,66.40987712,PP
isopropylamine,135,60.80165225,PP
isopropylamine,130,54.88723454,PP
isopropylamine,125,48.83389025,PP
isopropylamine,120,42.8447259,PP
isopropylamine,115,37.11671219,PP
isopropylamine,110,31.80320891,PP
isopropylamine,105,26.99792504,PP
isopropylamine,100,22.7378951,PP
isopropylamine,95,19.01895895,PP
isopropylamine,90,15.81049354,PP
isopropylamine,85,13.06835786,PP
isopropylamine,80,10.74272147,PP
isopropylamine,75,8.7834918,PP
isopropylamine,70,7.14282841,PP
isopropylamine,65,5.77672206,PP
isopropylamine,60,4.6455394,PP
isopropylamine,55,3.71404681,PP
isopropylamine,50,2.95130895,PP
isopropylamine,45,2.33037184,PP
isopropylamine,40,1.82791289,PP
isopropylamine,35,1.42387911,PP
isopropylamine,30,1.10112379,PP
isopropylamine,25,0.84507325,PP
methanol,160,9.78719212,PP
methanol,155,7.66019751,PP
methanol,150,6.05069046,PP
methanol,145,4.80502418,PP
methanol,140,3.82738344,PP
methanol,135,3.0531669,PP
methanol,130,2.43653678,PP
methanol,125,1.9436728,PP
methanol,120,1.54895961,PP
methanol,115,1.23259852,PP
methanol,110,0.97905218,PP
methanol,105,0.77599973,PP
methanol,100,0.61359211,PP
methanol,95,0.48391401,PP
methanol,90,0.38057979,PP
methanol,85,0.29842807,PP
methanol,80,0.23328268,PP
methanol,75,0.18176459,PP
methanol,70,0.14114178,PP
methanol,65,0.10920828,PP
methanol,60,0.08418612,PP
methanol,55,0.06464531,PP
methanol,50,0.04943859,PP
methanol,45,0.03764799,PP
methanol,40,0.02854108,PP
methanol,35,0.02153522,PP
methanol,30,0.01616837,PP
methanol,25,0.0120753,PP
methylacetate,160,79.28111483,PP
methylacetate,155,73.30072316,PP
methylacetate,150,65.93737703,PP
methylacetate,145,56.74450782,PP
methylacetate,140,45.92260446,PP
methylacetate,135,35.44609933,PP
methylacetate,130,27.19443532,PP
methylacetate,125,21.14547466,PP
methylacetate,120,16.67195691,PP
methylacetate,115,13.28005671,PP
methylacetate,110,10.65064326,PP
methylacetate,105,8.57761569,PP
methylacetate,100,6.92331602,PP
methylacetate,95,5.59186548,PP
methylacetate,90,4.51417733,PP
methylacetate,85,3.63879808,PP
methylacetate,80,2.92647644,PP
methylacetate,75,2.3465905,PP
methylacetate,70,1.87487085,PP
methylacetate,65,1.49179054,PP
methylacetate,60,1.18148525,PP
methylacetate,55,0.93095432,PP
methylacetate,50,0.72948268,PP
methylacetate,45,0.56820019,PP
methylacetate,40,0.43975026,PP
methylacetate,35,0.33802628,PP
methylacetate,30,0.25796256,PP
methylacetate,25,0.19536476,PP
butanone,160,80.74379727,PP
butanone,155,75.7512864,PP
butanone,150,70.07801337,PP
butanone,145,63.66723274,PP
butanone,140,56.58218435,PP
butanone,135,49.10411865,PP
butanone,130,41.72181842,PP
butanone,125,34.92693382,PP
butanone,120,28.9979467,PP
butanone,115,23.9832767,PP
butanone,110,19.80296053,PP
butanone,105,16.33618948,PP
butanone,100,13.46379007,PP
butanone,95,11.08240875,PP
butanone,90,9.10635739,PP
butanone,85,7.46589464,PP
butanone,80,6.1041596,PP
butanone,75,4.97471183,PP
butanone,70,4.03929552,PP
butanone,65,3.26622325,PP
butanone,60,2.62907701,PP
butanone,55,2.10569979,PP
butanone,50,1.67744335,PP
butanone,45,1.32856165,PP
butanone,40,1.04573839,PP
butanone,35,0.81770217,PP
butanone,30,0.63492032,PP
butanone,25,0.48934243,PP
ch2cl2,160,79.90854083,PP
ch2cl2,155,75.43818077,PP
ch2cl2,150,70.62436193,PP
ch2cl2,145,65.41588311,PP
ch2cl2,140,59.75701048,PP
ch2cl2,135,53.59907735,PP
ch2cl2,130,46.93311262,PP
ch2cl2,125,39.86283012,PP
ch2cl2,120,32.70676394,PP
ch2cl2,115,26.00712838,PP
ch2cl2,110,20.2711648,PP
ch2cl2,105,15.68470484,PP
ch2cl2,100,12.14008204,PP
ch2cl2,95,9.42579277,PP
ch2cl2,90,7.34166247,PP
ch2cl2,85,5.73094744,PP
ch2cl2,80,4.47779274,PP
ch2cl2,75,3.49746961,PP
ch2cl2,70,2.72765451,PP
ch2cl2,65,2.12184413,PP
ch2cl2,60,1.64479054,PP
ch2cl2,55,1.26941778,PP
ch2cl2,50,0.97465326,PP
ch2cl2,45,0.74391465,PP
ch2cl2,40,0.56404982,PP
ch2cl2,35,0.4245603,PP
ch2cl2,30,0.31703258,PP
ch2cl2,25,0.23470929,PP
propyleneglycol,160,3.37556334,PP
propyleneglycol,155,2.71977526,PP
propyleneglycol,150,2.19565994,PP
propyleneglycol,145,1.77374275,PP
propyleneglycol,140,1.43251894,PP
propyleneglycol,135,1.1557802,PP
propyleneglycol,130,0.93102699,PP
propyleneglycol,125,0.74843923,PP
propyleneglycol,120,0.60018788,PP
propyleneglycol,115,0.47996657,PP
propyleneglycol,110,0.38265311,PP
propyleneglycol,105,0.30406352,PP
propyleneglycol,100,0.24076568,PP
propyleneglycol,95,0.18993833,PP
propyleneglycol,90,0.14925969,PP
propyleneglycol,85,0.11681908,PP
propyleneglycol,80,0.09104567,PP
propyleneglycol,75,0.07065027,PP
propyleneglycol,70,0.05457732,PP
propyleneglycol,65,0.04196508,PP
propyleneglycol,60,0.03211235,PP
propyleneglycol,55,0.02445067,PP
propyleneglycol,50,0.01852102,PP
propyleneglycol,45,0.01395432,PP
propyleneglycol,40,0.01045509,PP
propyleneglycol,35,0.00778785,PP
propyleneglycol,30,0.00576586,PP
propyleneglycol,25,0.0042417,PP
tert-butanol,160,76.92045554,PP
tert-butanol,155,69.90540326,PP
tert-butanol,150,61.76554178,PP
tert-butanol,145,52.88118015,PP
tert-butanol,140,44.04957709,PP
tert-butanol,135,36.06298685,PP
tert-butanol,130,29.29776582,PP
tert-butanol,125,23.75238297,PP
tert-butanol,120,19.26100202,PP
tert-butanol,115,15.63099524,PP
tert-butanol,110,12.69247541,PP
tert-butanol,105,10.30714225,PP
tert-butanol,100,8.36605046,PP
tert-butanol,95,6.78350834,PP
tert-butanol,90,5.49177202,PP
tert-butanol,85,4.43702122,PP
tert-butanol,80,3.57602576,PP
tert-butanol,75,2.87385592,PP
tert-butanol,70,2.30209113,PP
tert-butanol,65,1.83745871,PP
tert-butanol,60,1.46083657,PP
tert-butanol,55,1.15645692,PP
tert-butanol,50,0.91129401,PP
tert-butanol,45,0.71457032,PP
tert-butanol,40,0.55737032,PP
tert-butanol,35,0.43232155,PP
tert-butanol,30,0.33333527,PP
tert-butanol,25,0.25539255,PP
thf,160,83.00554349,PP
thf,155,79.3316582,PP
thf,150,75.4648264,PP
thf,145,71.40779306,PP
thf,140,67.17008459,PP
thf,135,62.76995503,PP
thf,130,58.23654165,PP
thf,125,53.61095714,PP
thf,120,48.94608133,PP
thf,115,44.3043241,PP
thf,110,39.75329476,PP
thf,105,35.36001421,PP
thf,100,31.18491897,PP
thf,95,27.27702775,PP
thf,90,23.6711843,PP
thf,85,20.38754321,PP
thf,80,17.43283905,PP
thf,75,14.8026892,PP
thf,70,12.48433501,PP
thf,65,10.459088,PP
thf,60,8.70461529,PP
thf,55,7.19665523,PP
thf,50,5.91033211,PP
thf,45,4.82112315,PP
thf,40,3.90548701,PP
thf,35,3.14131751,PP
thf,30,2.50819508,PP
thf,25,1.98752074,PP
thp,160,80.51323804,PP
thp,155,76.51840822,PP
thp,150,72.3970376,PP
thp,145,68.16243972,PP
thp,140,63.83298335,PP
thp,135,59.43265869,PP
thp,130,54.99141995,PP
thp,125,50.54496121,PP
thp,120,46.1338636,PP
thp,115,41.80200967,PP
thp,110,37.59434379,PP
thp,105,33.55422328,PP
thp,100,29.72073749,PP
thp,95,26.12640822,PP
thp,90,22.79560274,PP
thp,85,19.74382174,PP
thp,80,16.9778361,PP
thp,75,14.49650104,PP
thp,70,12.29200655,PP
thp,65,10.3513243,PP
thp,60,8.6576585,PP
thp,55,7.1917676,PP
thp,50,5.93311484,PP
thp,45,4.86074958,PP
thp,40,3.95403619,PP
thp,35,3.19315923,PP
thp,30,2.55947754,PP
thp,25,2.03574877,PP
toluene,160,78.89939463,PP
toluene,155,74.49281876,PP
toluene,150,69.91523395,PP
toluene,145,65.18117227,PP
toluene,140,60.31447936,PP
toluene,135,55.35100696,PP
toluene,130,50.34009506,PP
toluene,125,45.34417757,PP
toluene,120,40.43678056,PP
toluene,115,35.69665899,PP
toluene,110,31.19995441,PP
toluene,105,27.01175322,PP
toluene,100,23.17947351,PP
toluene,95,19.72972414,PP
toluene,90,16.6692519,PP
toluene,85,13.98796315,PP
toluene,80,11.66392959,PP
toluene,75,9.6678732,PP
toluene,70,7.96703947,PP
toluene,65,6.52783708,PP
toluene,60,5.31776559,PP
toluene,55,4.30644544,PP
toluene,50,3.46617565,PP
toluene,45,2.77209633,PP
toluene,40,2.20219264,PP
toluene,35,1.73714366,PP
toluene,30,1.36011888,PP
toluene,25,1.05655227,PP
triethylamine,160,78.34136663,PP
triethylamine,155,74.19814323,PP
triethylamine,150,70.02308981,PP
triethylamine,145,65.83260635,PP
triethylamine,140,61.64450284,PP
triethylamine,135,57.47783049,PP
triethylamine,130,53.35268162,PP
triethylamine,125,49.28991727,PP
triethylamine,120,45.31082095,PP
triethylamine,115,41.43672267,PP
triethylamine,110,37.68834679,PP
triethylamine,105,34.08557578,PP
triethylamine,100,30.64670712,PP
triethylamine,95,27.38798123,PP
triethylamine,90,24.32309976,PP
triethylamine,85,21.46282276,PP
triethylamine,80,18.8146745,PP
triethylamine,75,16.38278073,PP
triethylamine,70,14.16784188,PP
triethylamine,65,12.16728986,PP
triethylamine,60,10.37548575,PP
triethylamine,55,8.78412872,PP
triethylamine,50,7.38268427,PP
triethylamine,45,6.15887306,PP
triethylamine,40,5.09917312,PP
triethylamine,35,4.18930657,PP
triethylamine,30,3.41468738,PP
triethylamine,25,2.76081386,PP
h2o,160,2.00E-06,PP
h2o,155,1.39E-06,PP
h2o,150,9.70E-07,PP
h2o,145,6.70E-07,PP
h2o,140,4.60E-07,PP
h2o,135,3.20E-07,PP
h2o,130,2.20E-07,PP
h2o,125,1.50E-07,PP
h2o,120,1.00E-07,PP
h2o,115,7.00E-08,PP
h2o,110,5.00E-08,PP
h2o,105,3.00E-08,PP
h2o,100,2.00E-08,PP
h2o,95,2.00E-08,PP
h2o,90,1.00E-08,PP
h2o,85,1.00E-08,PP
h2o,80,1.00E-08,PP
h2o,75,0,PP
h2o,70,0,PP
h2o,65,0,PP
h2o,60,0,PP
h2o,55,0,PP
h2o,50,0,PP
h2o,45,0,PP
h2o,40,0,PP
h2o,35,0,PP
h2o,30,0,PP
h2o,25,0,PP
"1,4-dimethylbenzene",160,76.48110522,PP
"1,4-dimethylbenzene",155,71.79094507,PP
"1,4-dimethylbenzene",150,67.00773535,PP
"1,4-dimethylbenzene",145,62.15836687,PP
"1,4-dimethylbenzene",140,57.27685835,PP
"1,4-dimethylbenzene",135,52.40436119,PP
"1,4-dimethylbenzene",130,47.58837343,PP
"1,4-dimethylbenzene",125,42.88034937,PP
"1,4-dimethylbenzene",120,38.33328494,PP
"1,4-dimethylbenzene",115,33.99766717,PP
"1,4-dimethylbenzene",110,29.9177632,PP
"1,4-dimethylbenzene",105,26.12845697,PP