Solvent,Temperature (°C),Solubility (%),Polymer
ethanol,100,0.16294586,PET
ethanol,95,0.09970106,PET
ethanol,90,0.06024234,PET
ethanol,85,0.03594081,PET
ethanol,80,0.02116807,PET
ethanol,75,0.01230535,PET
ethanol,70,0.00705877,PET
ethanol,65,0.00399465,PET
ethanol,60,0.0022296,PET
ethanol,55,0.00122699,PET
ethanol,50,0.00066556,PET
ethanol,45,0.00035572,PET
ethanol,40,0.00018725,PET
ethanol,35,9.70E-05,PET
ethanol,30,4.95E-05,PET
ethanol,25,2.48E-05,PET
ethylacetate,160,27.98521113,PET
ethylacetate,155,24.70500018,PET
ethylacetate,150,21.56565441,PET
ethylacetate,145,18.59705496,PET
ethylacetate,140,15.82752197,PET
ethylacetate,135,13.28293336,PET
ethylacetate,130,10.98394961,PET
ethylacetate,125,8.94477254,PET
ethylacetate,120,7.17112495,PET
ethylacetate,115,5.65968004,PET
ethylacetate,110,4.39811017,PET
ethylacetate,105,3.366618,PET
ethylacetate,100,2.53991165,PET
ethylacetate,95,1.8898028,PET
ethylacetate,90,1.3876052,PET
ethylacetate,85,1.00604295,PET
ethylacetate,80,0.72056597,PET
ethylacetate,75,0.51001912,PET
ethylacetate,70,0.35681696,PET
ethylacetate,65,0.24676543,PET
ethylacetate,60,0.16868768,PET
ethylacetate,55,0.11396602,PET
ethylacetate,50,0.0760766,PET
ethylacetate,45,0.05016077,PET
ethylacetate,40,0.03265394,PET
ethylacetate,35,0.02097766,PET
ethylacetate,30,0.01329208,PET
ethylacetate,25,0.008302,PET
glycol,160,0.15267809,PET
glycol,155,0.1012744,PET
glycol,150,0.06655404,PET
glycol,145,0.04331653,PET
glycol,140,0.02791321,PET
glycol,135,0.01780454,PET
glycol,130,0.01123873,PET
glycol,125,0.00701911,PET
glycol,120,0.00433656,PET
glycol,115,0.00264995,PET
glycol,110,0.00160138,PET
glycol,105,0.00095689,PET
glycol,100,0.0005653,PET
glycol,95,0.00033014,PET
glycol,90,0.00019059,PET
glycol,85,0.00010874,PET
glycol,80,6.13E-05,PET
glycol,75,3.42E-05,PET
glycol,70,1.88E-05,PET
glycol,65,1.02E-05,PET
glycol,60,5.50E-06,PET
glycol,55,2.92E-06,PET
glycol,50,1.53E-06,PET
glycol,45,7.90E-07,PET
glycol,40,4.00E-07,PET
glycol,35,2.00E-07,PET
glycol,30,1.00E-07,PET
glycol,25,5.00E-08,PET
n-heptane,160,0.5197613,PET
n-heptane,155,0.37577059,PET
n-heptane,150,0.2697209,PET
n-heptane,145,0.19211154,PET
n-heptane,140,0.13571433,PET
n-heptane,135,0.09504422,PET
n-heptane,130,0.06595572,PET
n-heptane,125,0.04533218,PET
n-heptane,120,0.03084521,PET
n-heptane,115,0.02076792,PET
n-heptane,110,0.01382974,PET
n-heptane,105,0.00910409,PET
n-heptane,100,0.00592158,PET
n-heptane,95,0.00380352,PET
n-heptane,90,0.00241122,PET
n-heptane,85,0.00150777,PET
n-heptane,80,0.00092942,PET
n-heptane,75,0.00056439,PET
n-heptane,70,0.0003374,PET
n-heptane,65,0.00019842,PET
n-heptane,60,0.0001147,PET
n-heptane,55,6.51E-05,PET
n-heptane,50,3.63E-05,PET
n-heptane,45,1.98E-05,PET
n-heptane,40,1.06E-05,PET
n-heptane,35,5.55E-06,PET
n-heptane,30,2.84E-06,PET
n-heptane,25,1.42E-06,PET
hexane,160,0.78480694,PET
hexane,155,0.56697054,PET
hexane,150,0.40679193,PET
hexane,145,0.28969672,PET
hexane,140,0.20466234,PET
hexane,135,0.1433613,PET
hexane,130,0.09952002,PET
hexane,125,0.06843262,PET
hexane,120,0.04658878,PET
hexane,115,0.03138739,PET
hexane,110,0.02091566,PET
hexane,105,0.01377883,PET
hexane,100,0.00896915,PET
hexane,95,0.00576574,PET
hexane,90,0.0036583,PET
hexane,85,0.00228964,PET
hexane,80,0.00141269,PET
hexane,75,0.00085869,PET
hexane,70,0.00051385,PET
hexane,65,0.0003025,PET
hexane,60,0.00017505,PET
hexane,55,9.95E-05,PET
hexane,50,5.55E-05,PET
hexane,45,3.04E-05,PET
hexane,40,1.63E-05,PET
hexane,35,8.52E-06,PET
hexane,30,4.36E-06,PET
hexane,25,2.18E-06,PET
isopropylamine,160,44.98741326,PET
isopropylamine,155,41.67133799,PET
isopropylamine,150,38.30988358,PET
isopropylamine,145,34.91659102,PET
isopropylamine,140,31.51291944,PET
isopropylamine,135,28.12301421,PET
isopropylamine,130,24.77740326,PET
isopropylamine,125,21.51174581,PET
isopropylamine,120,18.36913429,PET
isopropylamine,115,15.39586881,PET
isopropylamine,110,12.63951354,PET
isopropylamine,105,10.14537835,PET
isopropylamine,100,7.95038502,PET
isopropylamine,95,6.07703161,PET
isopropylamine,90,4.52991528,PET
isopropylamine,85,3.29443569,PET
isopropylamine,80,2.33992729,PET
isopropylamine,75,1.62525282,PET
isopropylamine,70,1.10542218,PET
isopropylamine,65,0.73713992,PET
isopropylamine,60,0.48238182,PET
isopropylamine,55,0.30996486,PET
isopropylamine,50,0.19562983,PET
isopropylamine,45,0.12126999,PET
isopropylamine,40,0.07381686,PET
isopropylamine,35,0.04410049,PET
isopropylamine,30,0.02584333,PET
isopropylamine,25,0.01484382,PET
methanol,160,11.0506352,PET
methanol,155,7.72346823,PET
methanol,150,5.27589995,PET
methanol,145,3.53419596,PET
methanol,140,2.32806274,PET
methanol,135,1.51118108,PET
methanol,130,0.96804463,PET
methanol,125,0.61256883,PET
methanol,120,0.38314256,PET
methanol,115,0.23695614,PET
methanol,110,0.1449312,PET
methanol,105,0.08767604,PET
methanol,100,0.05246093,PET
methanol,95,0.0310471,PET
methanol,90,0.0181727,PET
methanol,85,0.0105198,PET
methanol,80,0.0060222,PET
methanol,75,0.003409,PET
methanol,70,0.00190801,PET
methanol,65,0.00105575,PET
methanol,60,0.00057745,PET
methanol,55,0.00031215,PET
methanol,50,0.00016673,PET
methanol,45,8.80E-05,PET
methanol,40,4.58E-05,PET
methanol,35,2.36E-05,PET
methanol,30,1.20E-05,PET
methanol,25,6.00E-06,PET
methylacetate,160,33.28483329,PET
methylacetate,155,29.83730875,PET
methylacetate,150,26.47420314,PET
methylacetate,145,23.22689376,PET
methylacetate,140,20.12708724,PET
methylacetate,135,17.20722649,PET
methylacetate,130,14.4978572,PET
methylacetate,125,12.02627412,PET
methylacetate,120,9.81399032,PET
methylacetate,115,7.87404507,PET
methylacetate,110,6.20970515,PET
methylacetate,105,4.8138699,PET
methylacetate,100,3.66965121,PET
methylacetate,95,2.75251976,PET
methylacetate,90,2.03301545,PET
methylacetate,85,1.47981382,PET
methylacetate,80,1.06234396,PET
methylacetate,75,0.75266631,PET
methylacetate,70,0.52655429,PET
methylacetate,65,0.36386448,PET
methylacetate,60,0.24841304,PET
methylacetate,55,0.16755771,PET
methylacetate,50,0.11165258,PET
methylacetate,45,0.07348451,PET
methylacetate,40,0.0477541,PET
methylacetate,35,0.03062956,PET
methylacetate,30,0.01938119,PET
methylacetate,25,0.01209189,PET
butanone,160,36.48129622,PET
butanone,155,33.13520278,PET
butanone,150,29.8334357,PET
butanone,145,26.60217923,PET
butanone,140,23.46807003,PET
butanone,135,20.46046618,PET
butanone,130,17.60894946,PET
butanone,125,14.94315777,PET
butanone,120,12.49056891,PET
butanone,115,10.27438992,PET
butanone,110,8.31104106,PET
butanone,105,6.60827886,PET
butanone,100,5.16430295,PET
butanone,95,3.96740191,PET
butanone,90,2.99762092,PET
butanone,85,2.22898782,PET
butanone,80,1.63238258,PET
butanone,75,1.1782586,PET
butanone,70,0.83878394,PET
butanone,65,0.5892231,PET
butanone,60,0.40859115,PET
butanone,55,0.27974736,PET
butanone,50,0.18911691,PET
butanone,45,0.12622307,PET
butanone,40,0.08315567,PET
butanone,35,0.05405576,PET
butanone,30,0.03465757,PET
butanone,25,0.02190441,PET
ch2cl2,160,39.53828097,PET
ch2cl2,155,36.89978856,PET
ch2cl2,150,34.30480308,PET
ch2cl2,145,31.76064861,PET
ch2cl2,140,29.27310272,PET
ch2cl2,135,26.84979551,PET
ch2cl2,130,24.49656682,PET
ch2cl2,125,22.22005575,PET
ch2cl2,120,20.02673143,PET
ch2cl2,115,17.92394091,PET
ch2cl2,110,15.92058899,PET
ch2cl2,105,14.02161681,PET
ch2cl2,100,12.23687558,PET
ch2cl2,95,10.57200373,PET
ch2cl2,90,9.03430286,PET
ch2cl2,85,7.62934472,PET
ch2cl2,80,6.36180828,PET
ch2cl2,75,5.23390791,PET
ch2cl2,70,4.2458704,PET
ch2cl2,65,3.39482921,PET
ch2cl2,60,2.67484286,PET
ch2cl2,55,2.07704257,PET
ch2cl2,50,1.58999274,PET
ch2cl2,45,1.20052866,PET
ch2cl2,40,0.89467114,PET
ch2cl2,35,0.65852887,PET
ch2cl2,30,0.47908074,PET
ch2cl2,25,0.34469835,PET
propyleneglycol,160,0.88928836,PET
propyleneglycol,155,0.60870421,PET
propyleneglycol,150,0.41310897,PET
propyleneglycol,145,0.27784161,PET
propyleneglycol,140,0.18510103,PET
propyleneglycol,135,0.12210259,PET
propyleneglycol,130,0.079724,PET
propyleneglycol,125,0.05150626,PET
propyleneglycol,120,0.03291616,PET
propyleneglycol,115,0.02080262,PET
propyleneglycol,110,0.01299801,PET
propyleneglycol,105,0.00802755,PET
propyleneglycol,100,0.00489935,PET
propyleneglycol,95,0.00295426,PET
propyleneglycol,90,0.00175964,PET
propyleneglycol,85,0.00103507,PET
propyleneglycol,80,0.00060117,PET
propyleneglycol,75,0.00034468,PET
propyleneglycol,70,0.00019504,PET
propyleneglycol,65,0.0001089,PET
propyleneglycol,60,6.00E-05,PET
propyleneglycol,55,3.26E-05,PET
propyleneglycol,50,1.75E-05,PET
propyleneglycol,45,9.21E-06,PET
propyleneglycol,40,4.79E-06,PET
propyleneglycol,35,2.45E-06,PET
propyleneglycol,30,1.24E-06,PET
propyleneglycol,25,6.10E-07,PET
tert-butanol,160,12.10933408,PET
tert-butanol,155,9.06806244,PET
tert-butanol,150,6.65753151,PET
tert-butanol,145,4.80233842,PET
tert-butanol,140,3.40968828,PET
tert-butanol,135,2.38612951,PET
tert-butanol,130,1.6474315,PET
tert-butanol,125,1.12284547,PET
tert-butanol,120,0.75574968,PET
tert-butanol,115,0.50238675,PET
tert-butanol,110,0.32983244,PET
tert-butanol,105,0.21384109,PET
tert-butanol,100,0.13688271,PET
tert-butanol,95,0.08648921,PET
tert-butanol,90,0.05392788,PET
tert-butanol,85,0.03317226,PET
tert-butanol,80,0.02012387,PET
tert-butanol,75,0.01203592,PET
tert-butanol,70,0.00709461,PET
tert-butanol,65,0.00412003,PET
tert-butanol,60,0.00235627,PET
tert-butanol,55,0.00132655,PET
tert-butanol,50,0.00073485,PET
tert-butanol,45,0.00040035,PET
tert-butanol,40,0.0002144,PET
tert-butanol,35,0.00011279,PET
tert-butanol,30,5.83E-05,PET
tert-butanol,25,2.95E-05,PET
thf,160,37.95138413,PET
thf,155,34.74779651,PET
thf,150,31.58177855,PET
thf,145,28.472575,PET
thf,140,25.44155596,PET
thf,135,22.50786691,PET
thf,130,19.6966553,PET
thf,125,17.03087089,PET
thf,120,14.53461184,PET
thf,115,12.22970837,PET
thf,110,10.13533094,PET
thf,105,8.26607107,PET
thf,100,6.6300983,PET
thf,95,5.22802122,PET
thf,90,4.05263286,PET
thf,85,3.08904552,PET
thf,80,2.31644788,PET
thf,75,1.71013046,PET
thf,70,1.24386892,PET
thf,65,0.89203807,PET
thf,60,0.63116649,PET
thf,55,0.44084722,PET
thf,50,0.30407458,PET
thf,45,0.20716522,PET
thf,40,0.1394219,PET
thf,35,0.09268247,PET
thf,30,0.06084731,PET
thf,25,0.03944067,PET
thp,160,24.89787726,PET
thp,155,21.5770059,PET
thp,150,18.4634504,PET
thp,145,15.58863055,PET
thp,140,12.97774815,PET
thp,135,10.6482489,PET
thp,130,8.60869392,PET
thp,125,6.85734757,PET
thp,120,5.38283727,PET
thp,115,4.16548838,PET
thp,110,3.1793531,PET
thp,105,2.39486626,PET
thp,100,1.78136809,PET
thp,95,1.30917198,PET
thp,90,0.95107822,PET
thp,85,0.68323988,PET
thp,80,0.4854877,PET
thp,75,0.34126546,PET
thp,70,0.23731738,PET
thp,65,0.16325306,PET
thp,60,0.11107629,PET
thp,55,0.0747327,PET
thp,50,0.04970515,PET
thp,45,0.03266937,PET
thp,40,0.02121063,PET
thp,35,0.01359706,PET
thp,30,0.00860203,PET
thp,25,0.00536773,PET
toluene,160,23.28721905,PET
toluene,155,20.02002462,PET
toluene,150,16.97710322,PET
toluene,145,14.19034466,PET
toluene,140,11.68429091,PET
toluene,135,9.47434455,PET
toluene,130,7.56461124,PET
toluene,125,5.94814853,PET
toluene,120,4.60776689,PET
toluene,115,3.51828727,PET
toluene,110,2.64945637,PET
toluene,105,1.96890456,PET
toluene,100,1.44467128,PET
toluene,95,1.04708982,PET
toluene,90,0.74991289,PET
toluene,85,0.53080573,PET
toluene,80,0.37135433,PET
toluene,75,0.25677179,PET
toluene,70,0.17544543,PET
toluene,65,0.11842962,PET
toluene,60,0.07894995,PET
toluene,55,0.05195564,PET
toluene,50,0.03373559,PET
toluene,45,0.02160113,PET
toluene,40,0.01363102,PET
toluene,35,0.00847129,PET
toluene,30,0.00518108,PET
toluene,25,0.00311599,PET
triethylamine,160,3.86969938,PET
triethylamine,155,2.93745777,PET
triethylamine,150,2.21552088,PET
triethylamine,145,1.6600783,PET
triethylamine,140,1.23552809,PET
triethylamine,135,0.91318568,PET
triethylamine,130,0.6701166,PET
triethylamine,125,0.48811499,PET
triethylamine,120,0.35282916,PET
triethylamine,115,0.25302457,PET
triethylamine,110,0.17996898,PET
triethylamine,105,0.12692465,PET
triethylamine,100,0.08873201,PET
triethylamine,95,0.06147083,PET
triethylamine,90,0.04218682,PET
triethylamine,85,0.02867236,PET
triethylamine,80,0.01929236,PET
triethylamine,75,0.01284678,PET
triethylamine,70,0.00846326,PET
triethylamine,65,0.00551391,PET
triethylamine,60,0.0035514,PET
triethylamine,55,0.00226044,PET
triethylamine,50,0.00142126,PET
triethylamine,45,0.00088241,PET
triethylamine,40,0.00054077,PET
triethylamine,35,0.00032698,PET
triethylamine,30,0.00019499,PET
triethylamine,25,0.00011464,PET
h2o,160,0,PET
h2o,155,0,PET
h2o,150,0,PET
h2o,145,0,PET
h2o,140,0,PET
h2o,135,0,PET
h2o,130,0,PET
h2o,125,0,PET
h2o,120,0,PET
h2o,115,0,PET
h2o,110,0,PET
h2o,105,0,PET
h2o,100,0,PET
h2o,95,0,PET
h2o,90,0,PET
h2o,85,0,PET
h2o,80,0,PET
h2o,75,0,PET
h2o,70,0,PET
h2o,65,0,PET
h2o,60,0,PET
h2o,55,0,PET
h2o,50,0,PET
h2o,45,0,PET
h2o,40,0,PET
h2o,35,0,PET
h2o,30,0,PET
h2o,25,0,PET
"1,4-dimethylbenzene",160,15.35840104,PET
"1,4-dimethylbenzene",155,12.63605474,PET
"1,4-dimethylbenzene",150,10.25197809,PET
"1,4-dimethylbenzene",145,8.20407214,PET
"1,4-dimethylbenzene",140,6.47797716,PET
"1,4-dimethylbenzene",135,5.0494741,PET
"1,4-dimethylbenzene",130,3.88760492,PET
"1,4-dimethylbenzene",125,2.95785541,PET
"1,4-dimethylbenzene",120,2.22504812,PET
"1,4-dimethylbenzene",115,1.65555776,PET
"1,4-dimethylbenzene",110,1.21877546,PET
"1,4-dimethylbenzene",105,0.88789987,PET
"1,4-dimethylbenzene",100,0.64018588,PET
"1,4-dimethylbenzene",95,0.45682267,PET
"1,4-dimethylbenzene",90,0.32258667,PET
"1,4-dimethylbenzene",85,0.22538475,PET
"1,4-dimethylbenzene",80,0.15576574,PET
"1,4-dimethylbenzene",75,0.10645108,PET
"1,4-dimethylbenzene",70,0.07191086,PET
"1,4-dimethylbenzene",65,0.04799735,PET
"1,4-dimethylbenzene",60,0.03163795,PET
"1,4-dimethylbenzene",55,0.02058435,PET
"1,4-dimethylbenzene",50,0.01321151,PET
"1,4-dimethylbenzene",45,0.00835955,PET
"1,4-dimethylbenzene",40,0.00521119,PET
"1,4-dimethylbenzene",35,0.00319816,PET
"1,4-dimethylbenzene",30,0.0019308,PET
"1,4-dimethylbenzene",25,0.00114575,PET
"1,2-dimethylbenzene",160,16.54423228,PET
"1,2-dimethylbenzene",155,13.73801319,PET
"1,2-dimethylbenzene",150,11.24908259,PET
"1,2-dimethylbenzene",145,9.08310487,PET
"1,2-dimethylbenzene",140,7.2337953,PET
"1,2-dimethylbenzene",135,5.68418792,PET
"1,2-dimethylbenzene",130,4.4090133,PET
"1,2-dimethylbenzene",125,3.37760759,PET
"1,2-dimethylbenzene",120,2.55677255,PET
"1,2-dimethylbenzene",115,1.91332769,PET
"1,2-dimethylbenzene",110,1.41600941,PET
"1,2-dimethylbenzene",105,1.03667962,PET
"1,2-dimethylbenzene",100,0.75093307,PET
"1,2-dimethylbenzene",95,0.53822896,PET
"1,2-dimethylbenzene",90,0.38170659,PET
"1,2-dimethylbenzene",85,0.26781605,PET
"1,2-dimethylbenzene",80,0.18586587,PET
"1,2-dimethylbenzene",75,0.12755522,PET
"1,2-dimethylbenzene",70,0.08653321,PET
"1,2-dimethylbenzene",65,0.05800664,PET
"1,2-dimethylbenzene",60,0.03840459,PET
"1,2-dimethylbenzene",55,0.02510017,PET
"1,2-dimethylbenzene",50,0.01618507,PET
"1,2-dimethylbenzene",45,0.01029038,PET
"1,2-dimethylbenzene",40,0.00644675,PET
"1,2-dimethylbenzene",35,0.00397681,PET
"1,2-dimethylbenzene",30,0.0024137,PET
"1,2-dimethylbenzene",25,0.00144022,PET
propanol,160,18.26993444,Nylon66
propanol,155,15.61805679,Nylon66
propanol,150,13.20544572,Nylon66
propanol,145,11.04336755,Nylon66
propanol,140,9.13526358,Nylon66
propanol,135,7.4767849,Nylon66
propanol,130,6.05657836,Nylon66
propanol,125,4.85774479,Nylon66
propanol,120,3.85947212,Nylon66
propanol,115,3.03879131,Nylon66
propanol,110,2.37211948,Nylon66
propanol,105,1.83653759,Nylon66
propanol,100,1.41068164,Nylon66
propanol,95,1.07531168,Nylon66
propanol,90,0.81357196,Nylon66
propanol,85,0.61103204,Nylon66
propanol,80,0.45557482,Nylon66
propanol,75,0.33719203,Nylon66
propanol,70,0.24773385,Nylon66
propanol,65,0.18064622,Nylon66
propanol,60,0.13071658,Nylon66
propanol,55,0.09384097,Nylon66
propanol,50,0.06681841,Nylon66
propanol,45,0.04717413,Nylon66
propanol,40,0.03301102,Nylon66
propanol,35,0.02288683,Nylon66
propanol,30,0.01571408,Nylon66
propanol,25,0.01067958,Nylon66
2-propanol,160,18.04849603,Nylon66
2-propanol,155,15.37907452,Nylon66
2-propanol,150,12.9550128,Nylon66
2-propanol,145,10.78828635,Nylon66
2-propanol,140,8.88225663,Nylon66
2-propanol,135,7.23200092,Nylon66
2-propanol,130,5.82519034,Nylon66
2-propanol,125,4.64365317,Nylon66
2-propanol,120,3.66526186,Nylon66
2-propanol,115,2.86576963,Nylon66
2-propanol,110,2.2204988,Nylon66
2-propanol,105,1.70566131,Nylon66
2-propanol,100,1.29926852,Nylon66
2-propanol,95,0.98167732,Nylon66
2-propanol,90,0.73581734,Nylon66
2-propanol,85,0.54719111,Nylon66
2-propanol,80,0.40372202,Nylon66
2-propanol,75,0.29551473,Nylon66
2-propanol,70,0.21457679,Nylon66
2-propanol,65,0.15453378,Nylon66
2-propanol,60,0.11035949,Nylon66
2-propanol,55,0.07813215,Nylon66
2-propanol,50,0.05482176,Nylon66
2-propanol,45,0.03810921,Nylon66
2-propanol,40,0.02623575,Nylon66
2-propanol,35,0.01787963,Nylon66
2-propanol,30,0.01205652,Nylon66
2-propanol,25,0.00804011,Nylon66
propanone,160,21.05714588,Nylon66
propanone,155,18.26824908,Nylon66
propanone,150,15.67439995,Nylon66
propanone,145,13.29457238,Nylon66
propanone,140,11.14274298,Nylon66
propanone,135,9.22647058,Nylon66
propanone,130,7.54664296,Nylon66
propanone,125,6.09751859,Nylon66
propanone,120,4.86730513,Nylon66
propanone,115,3.83929102,Nylon66
propanone,110,2.99332348,Nylon66
propanone,105,2.30737907,Nylon66
propanone,100,1.75898232,Nylon66
propanone,95,1.32640762,Nylon66
propanone,90,0.98954221,Nylon66
propanone,85,0.73041351,Nylon66
propanone,80,0.5334338,Nylon66
propanone,75,0.38541939,Nylon66
propanone,70,0.27545893,Nylon66
propanone,65,0.19469105,Nylon66
propanone,60,0.13603969,Nylon66
propanone,55,0.09394021,Nylon66
propanone,50,0.06407853,Nylon66
propanone,45,0.04315512,Nylon66
propanone,40,0.02867944,Nylon66
propanone,35,0.01879595,Nylon66
propanone,30,0.01214024,Nylon66
propanone,25,0.00772237,Nylon66
acetylacetone,160,5.19291492,Nylon66
acetylacetone,155,4.15634674,Nylon66
acetylacetone,150,3.30164115,Nylon66
acetylacetone,145,2.60319992,Nylon66
acetylacetone,140,2.03734004,Nylon66
acetylacetone,135,1.58268344,Nylon66
acetylacetone,130,1.22032022,Nylon66
acetylacetone,125,0.93380727,Nylon66
acetylacetone,120,0.70905523,Nylon66
acetylacetone,115,0.5341466,Nylon66
acetylacetone,110,0.39911722,Nylon66
acetylacetone,105,0.29572424,Nylon66
acetylacetone,100,0.21721633,Nylon66
acetylacetone,95,0.15811616,Nylon66
acetylacetone,90,0.11402089,Nylon66
acetylacetone,85,0.08142364,Nylon66
acetylacetone,80,0.05755667,Nylon66
acetylacetone,75,0.04025582,Nylon66
acetylacetone,70,0.02784491,Nylon66
acetylacetone,65,0.01903841,Nylon66
acetylacetone,60,0.01286039,Nylon66
acetylacetone,55,0.00857773,Nylon66
acetylacetone,50,0.00564585,Nylon66
acetylacetone,45,0.00366482,Nylon66
acetylacetone,40,0.00234452,Nylon66
acetylacetone,35,0.00147717,Nylon66
acetylacetone,30,0.00091593,Nylon66
acetylacetone,25,0.00055847,Nylon66
benzene,160,9.20470138,Nylon66
benzene,155,7.41570398,Nylon66
benzene,150,5.9080252,Nylon66
benzene,145,4.65668081,Nylon66
benzene,140,3.63271324,Nylon66
benzene,135,2.80574731,Nylon66
benzene,130,2.1459997,Nylon66
benzene,125,1.6256646,Nylon66
benzene,120,1.21973401,Nylon66
benzene,115,0.90636606,Nylon66
benzene,110,0.66692978,Nylon66
benzene,105,0.48584109,Nylon66
benzene,100,0.35028015,Nylon66
benzene,95,0.24985396,Nylon66
benzene,90,0.17624806,Nylon66
benzene,85,0.12289257,Nylon66
benzene,80,0.08465746,Nylon66
benzene,75,0.05758361,Nylon66
benzene,70,0.03865125,Nylon66
benzene,65,0.02558453,Nylon66
benzene,60,0.01668939,Nylon66
benzene,55,0.01072095,Nylon66
benzene,50,0.00677668,Nylon66
benzene,45,0.00421145,Nylon66
benzene,40,0.00257096,Nylon66
benzene,35,0.00154029,Nylon66
benzene,30,0.00090474,Nylon66
benzene,25,0.00052048,Nylon66
chcl3,160,17.51562836,Nylon66
chcl3,155,16.04735712,Nylon66
chcl3,150,14.68418296,Nylon66
chcl3,145,13.42171954,Nylon66
chcl3,140,12.25509371,Nylon66
chcl3,135,11.17993276,Nylon66
chcl3,130,10.19092632,Nylon66
chcl3,125,9.28384955,Nylon66
chcl3,120,8.45349001,Nylon66
chcl3,115,7.69562186,Nylon66
chcl3,110,7.00523427,Nylon66
chcl3,105,6.37817151,Nylon66
chcl3,100,5.80997378,Nylon66