Solvent,Temperature (°C),Solubility (%),Polymer
ethanol,50,0.1704973,EVOH
ethanol,45,0.10591513,EVOH
ethanol,40,0.06480132,EVOH
ethanol,35,0.03902478,EVOH
ethanol,30,0.02311723,EVOH
ethanol,25,0.01345995,EVOH
ethylacetate,160,65.4659132,EVOH
ethylacetate,155,55.5180613,EVOH
ethylacetate,150,45.99375623,EVOH
ethylacetate,145,37.1642753,EVOH
ethylacetate,140,29.27139718,EVOH
ethylacetate,135,22.48533331,EVOH
ethylacetate,130,16.87423097,EVOH
ethylacetate,125,12.40086716,EVOH
ethylacetate,120,8.94713016,EVOH
ethylacetate,115,6.35170607,EVOH
ethylacetate,110,4.44440457,EVOH
ethylacetate,105,3.06865207,EVOH
ethylacetate,100,2.09204339,EVOH
ethylacetate,95,1.40860565,EVOH
ethylacetate,90,0.93666752,EVOH
ethylacetate,85,0.61496635,EVOH
ethylacetate,80,0.3984903,EVOH
ethylacetate,75,0.25472555,EVOH
ethylacetate,70,0.16053649,EVOH
ethylacetate,65,0.09969148,EVOH
ethylacetate,60,0.06096013,EVOH
ethylacetate,55,0.03668129,EVOH
ethylacetate,50,0.02170452,EVOH
ethylacetate,45,0.01261964,EVOH
ethylacetate,40,0.00720457,EVOH
ethylacetate,35,0.00403547,EVOH
ethylacetate,30,0.00221591,EVOH
ethylacetate,25,0.00119183,EVOH
glycol,160,71.43747178,EVOH
glycol,155,61.5191828,EVOH
glycol,150,51.44223136,EVOH
glycol,145,41.77371226,EVOH
glycol,140,33.0259369,EVOH
glycol,135,25.51609547,EVOH
glycol,130,19.33798282,EVOH
glycol,125,14.42027553,EVOH
glycol,120,10.60388466,EVOH
glycol,115,7.70094378,EVOH
glycol,110,5.52890809,EVOH
glycol,105,3.9265876,EVOH
glycol,100,2.75941081,EVOH
glycol,95,1.91911139,EVOH
glycol,90,1.32086605,EVOH
glycol,85,0.89956722,EVOH
glycol,80,0.60607485,EVOH
glycol,75,0.40383657,EVOH
glycol,70,0.26601947,EVOH
glycol,65,0.17316797,EVOH
glycol,60,0.11134345,EVOH
glycol,55,0.07067755,EVOH
glycol,50,0.04426653,EVOH
glycol,45,0.02733916,EVOH
glycol,40,0.01663908,EVOH
glycol,35,0.00997257,EVOH
glycol,30,0.00588161,EVOH
glycol,25,0.00341076,EVOH
n-heptane,160,3.06549571,EVOH
n-heptane,155,1.9010651,EVOH
n-heptane,150,1.20146638,EVOH
n-heptane,145,0.76389701,EVOH
n-heptane,140,0.48506378,EVOH
n-heptane,135,0.3061693,EVOH
n-heptane,130,0.19145971,EVOH
n-heptane,125,0.11831775,EVOH
n-heptane,120,0.07211057,EVOH
n-heptane,115,0.0432696,EVOH
n-heptane,110,0.02552409,EVOH
n-heptane,105,0.01478115,EVOH
n-heptane,100,0.00839265,EVOH
n-heptane,95,0.00466643,EVOH
n-heptane,90,0.00253768,EVOH
n-heptane,85,0.0013481,EVOH
n-heptane,80,0.00069872,EVOH
n-heptane,75,0.00035288,EVOH
n-heptane,70,0.00017343,EVOH
n-heptane,65,8.28E-05,EVOH
n-heptane,60,3.84E-05,EVOH
n-heptane,55,1.72E-05,EVOH
n-heptane,50,7.49E-06,EVOH
n-heptane,45,3.15E-06,EVOH
n-heptane,40,1.27E-06,EVOH
n-heptane,35,5.00E-07,EVOH
n-heptane,30,1.90E-07,EVOH
n-heptane,25,7.00E-08,EVOH
hexane,160,3.84021597,EVOH
hexane,155,2.33193692,EVOH
hexane,150,1.45651988,EVOH
hexane,145,0.91928414,EVOH
hexane,140,0.58090138,EVOH
hexane,135,0.36543641,EVOH
hexane,130,0.22798151,EVOH
hexane,125,0.14064583,EVOH
hexane,120,0.08560952,EVOH
hexane,115,0.05131949,EVOH
hexane,110,0.03024924,EVOH
hexane,105,0.01750639,EVOH
hexane,100,0.00993461,EVOH
hexane,95,0.0055211,EVOH
hexane,90,0.0030011,EVOH
hexane,85,0.0015936,EVOH
hexane,80,0.00082561,EVOH
hexane,75,0.00041679,EVOH
hexane,70,0.00020476,EVOH
hexane,65,9.78E-05,EVOH
hexane,60,4.53E-05,EVOH
hexane,55,2.03E-05,EVOH
hexane,50,8.83E-06,EVOH
hexane,45,3.71E-06,EVOH
hexane,40,1.50E-06,EVOH
hexane,35,5.80E-07,EVOH
hexane,30,2.20E-07,EVOH
hexane,25,8.00E-08,EVOH
isopropylamine,160,100,EVOH
isopropylamine,155,100,EVOH
isopropylamine,150,100,EVOH
isopropylamine,145,100,EVOH
isopropylamine,140,100,EVOH
isopropylamine,135,100,EVOH
isopropylamine,130,100,EVOH
isopropylamine,125,41.97252079,EVOH
isopropylamine,120,38.53436528,EVOH
isopropylamine,115,35.41907658,EVOH
isopropylamine,110,32.60184493,EVOH
isopropylamine,105,30.05268765,EVOH
isopropylamine,100,27.74760731,EVOH
isopropylamine,95,25.66408364,EVOH
isopropylamine,90,23.78183134,EVOH
isopropylamine,85,22.08107125,EVOH
isopropylamine,80,20.54781527,EVOH
isopropylamine,75,19.16364232,EVOH
isopropylamine,70,17.91740748,EVOH
isopropylamine,65,16.79486405,EVOH
isopropylamine,60,15.78588969,EVOH
isopropylamine,55,14.8797399,EVOH
isopropylamine,50,14.06602726,EVOH
isopropylamine,45,13.3368477,EVOH
isopropylamine,40,12.68394536,EVOH
isopropylamine,35,12.09957857,EVOH
isopropylamine,30,11.57680794,EVOH
isopropylamine,25,11.10902361,EVOH
methanol,160,84.96103787,EVOH
methanol,155,79.43997896,EVOH
methanol,150,73.41473122,EVOH
methanol,145,66.95085665,EVOH
methanol,140,60.14729583,EVOH
methanol,135,53.13515349,EVOH
methanol,130,46.07330339,EVOH
methanol,125,39.13991703,EVOH
methanol,120,32.51979954,EVOH
methanol,115,26.38825332,EVOH
methanol,110,20.89204818,EVOH
methanol,105,16.13238215,EVOH
methanol,100,12.15374863,EVOH
methanol,95,8.94214715,EVOH
methanol,90,6.43472482,EVOH
methanol,85,4.53648494,EVOH
methanol,80,3.13871095,EVOH
methanol,75,2.13443203,EVOH
methanol,70,1.42835114,EVOH
methanol,65,0.94141666,EVOH
methanol,60,0.61143507,EVOH
methanol,55,0.39141669,EVOH
methanol,50,0.24696768,EVOH
methanol,45,0.15355232,EVOH
methanol,40,0.09404182,EVOH
methanol,35,0.05670348,EVOH
methanol,30,0.03363957,EVOH
methanol,25,0.01962143,EVOH
methylacetate,160,70.1033188,EVOH
methylacetate,155,61.05368577,EVOH
methylacetate,150,52.09725365,EVOH
methylacetate,145,43.44980049,EVOH
methylacetate,140,35.34304109,EVOH
methylacetate,135,27.99945617,EVOH
methylacetate,130,21.59636138,EVOH
methylacetate,125,16.2322768,EVOH
methylacetate,120,11.91136026,EVOH
methylacetate,115,8.55396176,EVOH
methylacetate,110,6.02613328,EVOH
methylacetate,105,4.17308203,EVOH
methylacetate,100,2.8449297,EVOH
methylacetate,95,1.91116372,EVOH
methylacetate,90,1.26575586,EVOH
methylacetate,85,0.82657823,EVOH
methylacetate,80,0.53215644,EVOH
methylacetate,75,0.33765375,EVOH
methylacetate,70,0.21104601,EVOH
methylacetate,65,0.1298706,EVOH
methylacetate,60,0.07863171,EVOH
methylacetate,55,0.04681024,EVOH
methylacetate,50,0.02737954,EVOH
methylacetate,45,0.0157226,EVOH
methylacetate,40,0.00885714,EVOH
methylacetate,35,0.00489076,EVOH
methylacetate,30,0.00264486,EVOH
methylacetate,25,0.00139954,EVOH
butanone,160,71.3160153,EVOH
butanone,155,62.80189776,EVOH
butanone,150,54.42414362,EVOH
butanone,145,46.3404342,EVOH
butanone,140,38.70846974,EVOH
butanone,135,31.67666233,EVOH
butanone,130,25.37104312,EVOH
butanone,125,19.87994414,EVOH
butanone,120,15.24256693,EVOH
butanone,115,11.44487161,EVOH
butanone,110,8.42567707,EVOH
butanone,105,6.09060823,EVOH
butanone,100,4.32906026,EVOH
butanone,95,3.02931048,EVOH
butanone,90,2.08899374,EVOH
butanone,85,1.42060979,EVOH
butanone,80,0.95310205,EVOH
butanone,75,0.63097315,EVOH
butanone,70,0.41217798,EVOH
butanone,65,0.26563767,EVOH
butanone,60,0.1688503,EVOH
butanone,55,0.10581743,EVOH
butanone,50,0.06535218,EVOH
butanone,45,0.0397548,EVOH
butanone,40,0.02380697,EVOH
butanone,35,0.01402631,EVOH
butanone,30,0.00812514,EVOH
butanone,25,0.00462459,EVOH
ch2cl2,160,67.62234239,EVOH
ch2cl2,155,58.44575455,EVOH
ch2cl2,150,49.52880484,EVOH
ch2cl2,145,40.99351122,EVOH
ch2cl2,140,32.98284233,EVOH
ch2cl2,135,25.66994929,EVOH
ch2cl2,130,19.24993153,EVOH
ch2cl2,125,13.89594242,EVOH
ch2cl2,120,9.68768035,EVOH
ch2cl2,115,6.56519383,EVOH
ch2cl2,110,4.35504487,EVOH
ch2cl2,105,2.84249985,EVOH
ch2cl2,100,1.83057154,EVOH
ch2cl2,95,1.16428721,EVOH
ch2cl2,90,0.73118812,EVOH
ch2cl2,85,0.45303642,EVOH
ch2cl2,80,0.27662145,EVOH
ch2cl2,75,0.1662462,EVOH
ch2cl2,70,0.09821616,EVOH
ch2cl2,65,0.05696877,EVOH
ch2cl2,60,0.03240266,EVOH
ch2cl2,55,0.0180506,EVOH
ch2cl2,50,0.00983677,EVOH
ch2cl2,45,0.00523779,EVOH
ch2cl2,40,0.00272182,EVOH
ch2cl2,35,0.00137866,EVOH
ch2cl2,30,0.00067983,EVOH
ch2cl2,25,0.00032593,EVOH
propyleneglycol,160,69.00434861,EVOH
propyleneglycol,155,59.70521487,EVOH
propyleneglycol,150,50.66007145,EVOH
propyleneglycol,145,42.12326842,EVOH
propyleneglycol,140,34.3140534,EVOH
propyleneglycol,135,27.39153565,EVOH
propyleneglycol,130,21.44085697,EVOH
propyleneglycol,125,16.47315292,EVOH
propyleneglycol,120,12.43743039,EVOH
propyleneglycol,115,9.23925822,EVOH
propyleneglycol,110,6.76087395,EVOH
propyleneglycol,105,4.87833845,EVOH
propyleneglycol,100,3.47380202,EVOH
propyleneglycol,95,2.44271041,EVOH
propyleneglycol,90,1.6968874,EVOH
propyleneglycol,85,1.16478755,EVOH
propyleneglycol,80,0.79009517,EVOH
propyleneglycol,75,0.52956058,EVOH
propyleneglycol,70,0.35064513,EVOH
propyleneglycol,65,0.22930012,EVOH
propyleneglycol,60,0.14803218,EVOH
propyleneglycol,55,0.09430228,EVOH
propyleneglycol,50,0.05924788,EVOH
propyleneglycol,45,0.03669039,EVOH
propyleneglycol,40,0.02238107,EVOH
propyleneglycol,35,0.01343861,EVOH
propyleneglycol,30,0.00793679,EVOH
propyleneglycol,25,0.00460682,EVOH
tert-butanol,160,69.44307062,EVOH
tert-butanol,155,60.14068641,EVOH
tert-butanol,150,51.04111064,EVOH
tert-butanol,145,42.41816682,EVOH
tert-butanol,140,34.51330811,EVOH
tert-butanol,135,27.50393233,EVOH
tert-butanol,130,21.48572068,EVOH
tert-butanol,125,16.47257296,EVOH
tert-butanol,120,12.41085325,EVOH
tert-butanol,115,9.20116667,EVOH
tert-butanol,110,6.72062898,EVOH
tert-butanol,105,4.8411655,EVOH
tert-butanol,100,3.44205965,EVOH
tert-butanol,95,2.41699729,EVOH
tert-butanol,90,1.67685201,EVOH
tert-butanol,85,1.14964807,EVOH
tert-butanol,80,0.77894601,EVOH
tert-butanol,75,0.5215343,EVOH
tert-butanol,70,0.34498615,EVOH
tert-butanol,65,0.2253881,EVOH
tert-butanol,60,0.14537888,EVOH
tert-butanol,55,0.09253608,EVOH
tert-butanol,50,0.05809383,EVOH
tert-butanol,45,0.03595019,EVOH
tert-butanol,40,0.02191506,EVOH
tert-butanol,35,0.01315068,EVOH
tert-butanol,30,0.00776223,EVOH
tert-butanol,25,0.00450301,EVOH
thf,160,71.37391203,EVOH
thf,155,63.08948479,EVOH
thf,150,55.11710018,EVOH
thf,145,47.60625339,EVOH
thf,140,40.66368947,EVOH
thf,135,34.35456415,EVOH
thf,130,28.7077564,EVOH
thf,125,23.72459609,EVOH
thf,120,19.38581465,EVOH
thf,115,15.65840378,EVOH
thf,110,12.49933702,EVOH
thf,105,9.85906716,EVOH
thf,100,7.68373443,EVOH
thf,95,5.91742539,EVOH
thf,90,4.5041616,EVOH
thf,85,3.38970474,EVOH
thf,80,2.52321785,EVOH
thf,75,1.85860017,EVOH
thf,70,1.35534374,EVOH
thf,65,0.97885957,EVOH
thf,60,0.70039902,EVOH
thf,55,0.49663447,EVOH
thf,50,0.34903355,EVOH
thf,45,0.24314789,EVOH
thf,40,0.16789697,EVOH
thf,35,0.11490637,EVOH
thf,30,0.07792915,EVOH
thf,25,0.05236043,EVOH
thp,160,64.40892006,EVOH
thp,155,53.8605441,EVOH
thp,150,43.96243396,EVOH
thp,145,35.11810694,EVOH
thp,140,27.55126865,EVOH
thp,135,21.29853614,EVOH
thp,130,16.26536205,EVOH
thp,125,12.29245042,EVOH
thp,120,9.20346167,EVOH
thp,115,6.83113641,EVOH
thp,110,5.02849499,EVOH
thp,105,3.67189137,EVOH
thp,100,2.66015961,EVOH
thp,95,1.91214714,EVOH
thp,90,1.36376107,EVOH
thp,85,0.96504574,EVOH
thp,80,0.6775207,EVOH
thp,75,0.47186639,EVOH
thp,70,0.3259707,EVOH
thp,65,0.22331985,EVOH
thp,60,0.15169688,EVOH
thp,55,0.10214649,EVOH
thp,50,0.06816326,EVOH
thp,45,0.0450636,EVOH
thp,40,0.02950561,EVOH
thp,35,0.01912611,EVOH
thp,30,0.01226925,EVOH
thp,25,0.00778554,EVOH
toluene,160,50.10858746,EVOH
toluene,155,28.44725409,EVOH
toluene,150,14.59435576,EVOH
toluene,145,8.16606176,EVOH
toluene,140,4.86063085,EVOH
toluene,135,2.98431621,EVOH
toluene,130,1.85780587,EVOH
toluene,125,1.16082624,EVOH
toluene,120,0.72330202,EVOH
toluene,115,0.44739466,EVOH
toluene,110,0.27379,EVOH
toluene,105,0.16533117,EVOH
toluene,100,0.09830217,EVOH
toluene,95,0.05744347,EVOH
toluene,90,0.0329366,EVOH
toluene,85,0.01850249,EVOH
toluene,80,0.01016921,EVOH
toluene,75,0.00546092,EVOH
toluene,70,0.00286148,EVOH
toluene,65,0.00146113,EVOH
toluene,60,0.00072607,EVOH
toluene,55,0.00035065,EVOH
toluene,50,0.00016434,EVOH
toluene,45,7.46E-05,EVOH
toluene,40,3.28E-05,EVOH
toluene,35,1.39E-05,EVOH
toluene,30,5.70E-06,EVOH
toluene,25,2.25E-06,EVOH
triethylamine,160,41.8085555,EVOH
triethylamine,155,31.08028783,EVOH
triethylamine,150,24.68568467,EVOH
triethylamine,145,20.42648333,EVOH
triethylamine,140,17.3778803,EVOH
triethylamine,135,15.09645164,EVOH
triethylamine,130,13.339282,EVOH
triethylamine,125,11.96154689,EVOH
triethylamine,120,10.86791209,EVOH
triethylamine,115,9.99679833,EVOH
triethylamine,110,9.30156012,EVOH
triethylamine,105,8.75014989,EVOH
triethylamine,100,8.31810111,EVOH
triethylamine,95,7.9866786,EVOH
triethylamine,90,7.74142159,EVOH
triethylamine,85,7.57126282,EVOH
triethylamine,80,7.46643302,EVOH
triethylamine,75,7.41988991,EVOH
triethylamine,70,7.42511788,EVOH
triethylamine,65,7.47670686,EVOH
triethylamine,60,7.57015436,EVOH
triethylamine,55,100,EVOH
triethylamine,50,100,EVOH
triethylamine,45,100,EVOH
triethylamine,40,100,EVOH
triethylamine,35,100,EVOH
triethylamine,30,100,EVOH
triethylamine,25,100,EVOH
h2o,160,2.12171855,EVOH
h2o,155,1.42383559,EVOH
h2o,150,0.9761146,EVOH
h2o,145,0.67680048,EVOH
h2o,140,0.47206995,EVOH
h2o,135,0.33017845,EVOH
h2o,130,0.23110105,EVOH
h2o,125,0.16165112,EVOH
h2o,120,0.11289529,EVOH
h2o,115,0.07867025,EVOH
h2o,110,0.05467374,EVOH
h2o,105,0.0378816,EVOH
h2o,100,0.02616011,EVOH
h2o,95,0.01800165,EVOH
h2o,90,0.01234117,EVOH
h2o,85,0.00842718,EVOH
h2o,80,0.00573058,EVOH
h2o,75,0.00387975,EVOH
h2o,70,0.00261448,EVOH
h2o,65,0.00175314,EVOH
h2o,60,0.00116937,EVOH
h2o,55,0.00077558,EVOH
h2o,50,0.00051129,EVOH
h2o,45,0.00033485,EVOH
h2o,40,0.00021775,EVOH
h2o,35,0.00014053,EVOH
h2o,30,8.99E-05,EVOH
h2o,25,5.71E-05,EVOH
"1,4-dimethylbenzene",160,36.48123891,EVOH
"1,4-dimethylbenzene",155,16.73297248,EVOH
"1,4-dimethylbenzene",150,8.88827191,EVOH
"1,4-dimethylbenzene",145,5.20497129,EVOH
"1,4-dimethylbenzene",140,3.18513264,EVOH
"1,4-dimethylbenzene",135,1.98812888,EVOH
"1,4-dimethylbenzene",130,1.24982481,EVOH
"1,4-dimethylbenzene",125,0.78527171,EVOH
"1,4-dimethylbenzene",120,0.49061587,EVOH
"1,4-dimethylbenzene",115,0.30368316,EVOH
"1,4-dimethylbenzene",110,0.18571047,EVOH
"1,4-dimethylbenzene",105,0.11194545,EVOH
"1,4-dimethylbenzene",100,0.06639027,EVOH
"1,4-dimethylbenzene",95,0.03867309,EVOH
"1,4-dimethylbenzene",90,0.02209369,EVOH
"1,4-dimethylbenzene",85,0.01236166,EVOH
"1,4-dimethylbenzene",80,0.0067648,EVOH
"1,4-dimethylbenzene",75,0.00361608,EVOH
"1,4-dimethylbenzene",70,0.00188567,EVOH
"1,4-dimethylbenzene",65,0.00095802,EVOH
"1,4-dimethylbenzene",60,0.00047357,EVOH
"1,4-dimethylbenzene",55,0.00022746,EVOH
"1,4-dimethylbenzene",50,0.000106,EVOH
"1,4-dimethylbenzene",45,4.79E-05,EVOH
"1,4-dimethylbenzene",40,2.09E-05,EVOH
"1,4-dimethylbenzene",35,8.82E-06,EVOH
"1,4-dimethylbenzene",30,3.59E-06,EVOH
"1,4-dimethylbenzene",25,1.40E-06,EVOH
"1,2-dimethylbenzene",160,38.65821784,EVOH
"1,2-dimethylbenzene",155,18.31543233,EVOH
"1,2-dimethylbenzene",150,9.65714532,EVOH
"1,2-dimethylbenzene",145,5.6230524,EVOH
"1,2-dimethylbenzene",140,3.43023395,EVOH
"1,2-dimethylbenzene",135,2.13777391,EVOH
"1,2-dimethylbenzene",130,1.34310955,EVOH
"1,2-dimethylbenzene",125,0.84393815,EVOH
"1,2-dimethylbenzene",120,0.52754602,EVOH
"1,2-dimethylbenzene",115,0.32682494,EVOH
"1,2-dimethylbenzene",110,0.2000873,EVOH
"1,2-dimethylbenzene",105,0.12077236,EVOH
"1,2-dimethylbenzene",100,0.0717325,EVOH
"1,2-dimethylbenzene",95,0.04185348,EVOH
"1,2-dimethylbenzene",90,0.0239527,EVOH
"1,2-dimethylbenzene",85,0.0134268,EVOH
"1,2-dimethylbenzene",80,0.00736213,EVOH
"1,2-dimethylbenzene",75,0.00394348,EVOH
"1,2-dimethylbenzene",70,0.00206081,EVOH
"1,2-dimethylbenzene",65,0.00104933,EVOH
"1,2-dimethylbenzene",60,0.00051991,EVOH
"1,2-dimethylbenzene",55,0.00025032,EVOH
"1,2-dimethylbenzene",50,0.00011695,EVOH
"1,2-dimethylbenzene",45,5.29E-05,EVOH
"1,2-dimethylbenzene",40,2.32E-05,EVOH
"1,2-dimethylbenzene",35,9.81E-06,EVOH
"1,2-dimethylbenzene",30,4.00E-06,EVOH
"1,2-dimethylbenzene",25,1.57E-06,EVOH
propanol,160,43.04393172,PVC
propanol,155,38.6804122,PVC
propanol,150,34.39900651,PVC
propanol,145,30.27483465,PVC
propanol,140,26.37430058,PVC
propanol,135,22.75045111,PVC
propanol,130,19.4399252,PVC
propanol,125,16.46284142,PVC
propanol,120,13.82412328,PVC
propanol,115,11.51606426,PVC
propanol,110,9.52138644,PVC
propanol,105,7.81632998,PVC
propanol,100,6.37330399,PVC
propanol,95,5.16315096,PVC
propanol,90,4.15680489,PVC
propanol,85,3.32646666,PVC
propanol,80,2.64636799,PVC
propanol,75,2.09317884,PVC
propanol,70,1.64619386,PVC
propanol,65,1.28732675,PVC
propanol,60,1.00099285,PVC
propanol,55,0.77392062,PVC
propanol,50,0.59492562,PVC
propanol,45,0.45467035,PVC
propanol,40,0.34542599,PVC
propanol,35,0.26084632,PVC
propanol,30,0.19575948,PVC
propanol,25,0.14598107,PVC
2-propanol,160,43.87243232,PVC
2-propanol,155,39.51825394,PVC
2-propanol,150,35.22487298,PVC
2-propanol,145,31.06893358,PVC
2-propanol,140,27.12012393,PVC
2-propanol,135,23.4358562,PVC
2-propanol,130,20.05746132,PVC
2-propanol,125,17.00943213,PVC
2-propanol,120,14.30033787,PVC
2-propanol,115,11.92520837,PVC
2-propanol,110,9.86859369,PVC
2-propanol,105,8.10777445,PVC
2-propanol,100,6.61556842,PVC
2-propanol,95,5.36277453,PVC
2-propanol,90,4.31998099,PVC
2-propanol,85,3.45886347,PVC
2-propanol,80,2.75304245,PVC
2-propanol,75,2.17855212,PVC
2-propanol,70,1.71407101,PVC
2-propanol,65,1.34094046,PVC
2-propanol,60,1.04306012,PVC
2-propanol,55,0.80670413,PVC
2-propanol,50,0.62029451,PVC
2-propanol,45,0.4741574,PVC
2-propanol,40,0.36027949,PVC
2-propanol,35,0.2720761,PVC
2-propanol,30,0.20417695,PVC
2-propanol,25,0.15223367,PVC
propanone,160,63.72391788,PVC
propanone,155,61.60564505,PVC
propanone,150,59.46193111,PVC
propanone,145,57.29690243,PVC
propanone,140,55.11382769,PVC
propanone,135,52.91715478,PVC
propanone,130,50.71089624,PVC
propanone,125,48.50018963,PVC
propanone,120,46.28942957,PVC
propanone,115,44.08343259,PVC
propanone,110,41.88713411,PVC
propanone,105,39.70556747,PVC
propanone,100,37.54410875,PVC
propanone,95,35.40733338,PVC
propanone,90,33.30075113,PVC
propanone,85,31.22955592,PVC
propanone,80,29.19873723,PVC
propanone,75,27.21380106,PVC
propanone,70,25.27965951,PVC
propanone,65,23.40078876,PVC
propanone,60,21.58199083,PVC
propanone,55,19.8280624,PVC
propanone,50,18.1430757,PVC
propanone,45,16.53046547,PVC
propanone,40,14.99432143,PVC
propanone,35,13.53740416,PVC
propanone,30,12.16225415,PVC
propanone,25,10.87095123,PVC
acetylacetone,160,43.4076179,PVC
acetylacetone,155,40.6833361,PVC
acetylacetone,150,38.01523488,PVC
acetylacetone,145,35.4127551,PVC
acetylacetone,140,32.88463695,PVC
acetylacetone,135,30.43881902,PVC
acetylacetone,130,28.08235972,PVC
acetylacetone,125,25.82138018,PVC
acetylacetone,120,23.66102738,PVC
acetylacetone,115,21.60545566,PVC
acetylacetone,110,19.65782471,PVC
acetylacetone,105,17.82031197,PVC
acetylacetone,100,16.09410757,PVC
acetylacetone,95,14.47958076,PVC
acetylacetone,90,12.97611401,PVC
acetylacetone,85,11.58231205,PVC
acetylacetone,80,10.29602157,PVC
acetylacetone,75,9.1143999,PVC
acetylacetone,70,8.03398931,PVC
acetylacetone,65,7.05079573,PVC
acetylacetone,60,6.16037909,PVC
acetylacetone,55,5.35790065,PVC
acetylacetone,50,4.63826928,PVC
acetylacetone,45,3.99617735,PVC
acetylacetone,40,3.42619564,PVC
acetylacetone,35,2.92285002,PVC
acetylacetone,30,2.48069251,PVC
acetylacetone,25,2.09436588,PVC
benzene,160,48.12412116,PVC
benzene,155,45.00667113,PVC
benzene,150,41.88884303,PVC
benzene,145,38.79000963,PVC
benzene,140,35.73066583,PVC
benzene,135,32.73189934,PVC
benzene,130,29.81463471,PVC
benzene,125,26.99898065,PVC
benzene,120,24.30348546,PVC
benzene,115,21.74447836,PVC
benzene,110,19.33552347,PVC
benzene,105,17.0870326,PVC
benzene,100,15.00605151,PVC
benzene,95,13.09623436,PVC
benzene,90,11.35798494,PVC
benzene,85,9.78873228,PVC
benzene,80,8.38332136,PVC
benzene,75,7.13445642,PVC
benzene,70,6.03317477,PVC
benzene,65,5.06931359,PVC
benzene,60,4.23194591,PVC
benzene,55,3.50976886,PVC
benzene,50,2.89143656,PVC
benzene,45,2.36582915,PVC
benzene,40,1.92226639,PVC
benzene,35,1.55066402,PVC
benzene,30,1.24164184,PVC
benzene,25,0.9865899,PVC
chcl3,160,40.56894827,PVC
chcl3,155,37.86003012,PVC
chcl3,150,35.20379549,PVC
chcl3,145,32.60924094,PVC
chcl3,140,30.08559099,PVC
chcl3,135,27.64173039,PVC
chcl3,130,25.28615872,PVC
chcl3,125,23.02682558,PVC
chcl3,120,20.87096441,PVC
chcl3,115,18.824895,PVC
chcl3,110,16.89403652,PVC
chcl3,105,15.08250714,PVC
chcl3,100,13.39322996,PVC
chcl3,95,11.82780404,PVC
chcl3,90,10.38647472,PVC
chcl3,85,9.06815514,PVC