Solvent,Temperature (°C),Solubility (%),Polymer
chcl3,95,5.29626864,Nylon66
chcl3,90,4.83319016,Nylon66
chcl3,85,4.41680569,Nylon66
chcl3,80,4.04334645,Nylon66
chcl3,75,3.70936124,Nylon66
chcl3,70,3.4116622,Nylon66
chcl3,65,3.14718124,Nylon66
chcl3,60,2.91316367,Nylon66
chcl3,55,2.70703525,Nylon66
chcl3,50,2.52652847,Nylon66
chcl3,45,2.36972128,Nylon66
chcl3,40,2.23485168,Nylon66
chcl3,35,2.12048903,Nylon66
chcl3,30,2.02550365,Nylon66
chcl3,25,1.94908497,Nylon66
cyclohexane,160,0.72479685,Nylon66
cyclohexane,155,0.54113588,Nylon66
cyclohexane,150,0.40142859,Nylon66
cyclohexane,145,0.29570375,Nylon66
cyclohexane,140,0.21617128,Nylon66
cyclohexane,135,0.15674241,Nylon66
cyclohexane,130,0.11266322,Nylon66
cyclohexane,125,0.0802319,Nylon66
cyclohexane,120,0.05657744,Nylon66
cyclohexane,115,0.03948488,Nylon66
cyclohexane,110,0.0272562,Nylon66
cyclohexane,105,0.01859929,Nylon66
cyclohexane,100,0.0125391,Nylon66
cyclohexane,95,0.00834657,Nylon66
cyclohexane,90,0.00548206,Nylon66
cyclohexane,85,0.00355045,Nylon66
cyclohexane,80,0.0022658,Nylon66
cyclohexane,75,0.00142378,Nylon66
cyclohexane,70,0.00088025,Nylon66
cyclohexane,65,0.00053501,Nylon66
cyclohexane,60,0.0003194,Nylon66
cyclohexane,55,0.00018713,Nylon66
cyclohexane,50,0.00010748,Nylon66
cyclohexane,45,6.05E-05,Nylon66
cyclohexane,40,3.33E-05,Nylon66
cyclohexane,35,1.79E-05,Nylon66
cyclohexane,30,9.40E-06,Nylon66
cyclohexane,25,4.81E-06,Nylon66
cyclohexanol,160,8.59136018,Nylon66
cyclohexanol,155,7.11565528,Nylon66
cyclohexanol,150,5.84531768,Nylon66
cyclohexanol,145,4.76351889,Nylon66
cyclohexanol,140,3.85178777,Nylon66
cyclohexanol,135,3.09097865,Nylon66
cyclohexanol,130,2.46210051,Nylon66
cyclohexanol,125,1.94695359,Nylon66
cyclohexanol,120,1.52860442,Nylon66
cyclohexanol,115,1.19167437,Nylon66
cyclohexanol,110,0.92248478,Nylon66
cyclohexanol,105,0.7090858,Nylon66
cyclohexanol,100,0.54120043,Nylon66
cyclohexanol,95,0.41011205,Nylon66
cyclohexanol,90,0.30851853,Nylon66
cyclohexanol,85,0.23037135,Nylon66
cyclohexanol,80,0.17071182,Nylon66
cyclohexanol,75,0.12551391,Nylon66
cyclohexanol,70,0.0915387,Nylon66
cyclohexanol,65,0.06620338,Nylon66
cyclohexanol,60,0.04746598,Nylon66
cyclohexanol,55,0.03372581,Nylon66
cyclohexanol,50,0.0237387,Nylon66
cyclohexanol,45,0.01654585,Nylon66
cyclohexanol,40,0.01141475,Nylon66
cyclohexanol,35,0.00779079,Nylon66
cyclohexanol,30,0.00525788,Nylon66
cyclohexanol,25,0.00350681,Nylon66
"2,3-dihydropyran",160,10.03253146,Nylon66
"2,3-dihydropyran",155,8.21217494,Nylon66
"2,3-dihydropyran",150,6.64870827,Nylon66
"2,3-dihydropyran",145,5.32570051,Nylon66
"2,3-dihydropyran",140,4.22196644,Nylon66
"2,3-dihydropyran",135,3.31346812,Nylon66
"2,3-dihydropyran",130,2.57510171,Nylon66
"2,3-dihydropyran",125,1.98215052,Nylon66
"2,3-dihydropyran",120,1.51134981,Nylon66
"2,3-dihydropyran",115,1.14156749,Nylon66
"2,3-dihydropyran",110,0.85415141,Nylon66
"2,3-dihydropyran",105,0.63302531,Nylon66
"2,3-dihydropyran",100,0.46460777,Nylon66
"2,3-dihydropyran",95,0.33762117,Nylon66
"2,3-dihydropyran",90,0.24284219,Nylon66
"2,3-dihydropyran",85,0.17283052,Nylon66
"2,3-dihydropyran",80,0.12166009,Nylon66
"2,3-dihydropyran",75,0.08466764,Nylon66
"2,3-dihydropyran",70,0.05822647,Nylon66
"2,3-dihydropyran",65,0.03954866,Nylon66
"2,3-dihydropyran",60,0.0265161,Nylon66
"2,3-dihydropyran",55,0.01753861,Nylon66
"2,3-dihydropyran",50,0.01143703,Nylon66
"2,3-dihydropyran",45,0.00734805,Nylon66
"2,3-dihydropyran",40,0.00464795,Nylon66
"2,3-dihydropyran",35,0.00289237,Nylon66
"2,3-dihydropyran",30,0.00176931,Nylon66
"2,3-dihydropyran",25,0.00106301,Nylon66
dimethylformamide,160,16.49322668,Nylon66
dimethylformamide,155,14.27539573,Nylon66
dimethylformamide,150,12.24960046,Nylon66
dimethylformamide,145,10.41843972,Nylon66
dimethylformamide,140,8.78099482,Nylon66
dimethylformamide,135,7.33301464,Nylon66
dimethylformamide,130,6.06719332,Nylon66
dimethylformamide,125,4.97336427,Nylon66
dimethylformamide,120,4.03909533,Nylon66
dimethylformamide,115,3.25026373,Nylon66
dimethylformamide,110,2.59176105,Nylon66
dimethylformamide,105,2.04812878,Nylon66
dimethylformamide,100,1.60416033,Nylon66
dimethylformamide,95,1.24537214,Nylon66
dimethylformamide,90,0.95836253,Nylon66
dimethylformamide,85,0.73103932,Nylon66
dimethylformamide,80,0.55272818,Nylon66
dimethylformamide,75,0.41419057,Nylon66
dimethylformamide,70,0.30756815,Nylon66
dimethylformamide,65,0.22628033,Nylon66
dimethylformamide,60,0.16489426,Nylon66
dimethylformamide,55,0.11898281,Nylon66
dimethylformamide,50,0.08498222,Nylon66
dimethylformamide,45,0.06005666,Nylon66
dimethylformamide,40,0.04197465,Nylon66
dimethylformamide,35,0.0289994,Nylon66
dimethylformamide,30,0.01979385,Nylon66
dimethylformamide,25,0.01333995,Nylon66
dimethylsulfoxide,160,7.75297854,Nylon66
dimethylsulfoxide,155,6.53050028,Nylon66
dimethylsulfoxide,150,5.46907753,Nylon66
dimethylsulfoxide,145,4.55330595,Nylon66
dimethylsulfoxide,140,3.76834587,Nylon66
dimethylsulfoxide,135,3.10000333,Nylon66
dimethylsulfoxide,130,2.53480002,Nylon66
dimethylsulfoxide,125,2.06008914,Nylon66
dimethylsulfoxide,120,1.6641103,Nylon66
dimethylsulfoxide,115,1.33605912,Nylon66
dimethylsulfoxide,110,1.06612594,Nylon66
dimethylsulfoxide,105,0.84550859,Nylon66
dimethylsulfoxide,100,0.66640143,Nylon66
dimethylsulfoxide,95,0.52195776,Nylon66
dimethylsulfoxide,90,0.40623807,Nylon66
dimethylsulfoxide,85,0.3141419,Nylon66
dimethylsulfoxide,80,0.24133174,Nylon66
dimethylsulfoxide,75,0.18415289,Nylon66
dimethylsulfoxide,70,0.13955287,Nylon66
dimethylsulfoxide,65,0.10500362,Nylon66
dimethylsulfoxide,60,0.07842822,Nylon66
dimethylsulfoxide,55,0.05813381,Nylon66
dimethylsulfoxide,50,0.04275112,Nylon66
dimethylsulfoxide,45,0.03118106,Nylon66
dimethylsulfoxide,40,0.02254807,Nylon66
dimethylsulfoxide,35,0.01616002,Nylon66
dimethylsulfoxide,30,0.01147401,Nylon66
dimethylsulfoxide,25,0.0080676,Nylon66
diphenylether,160,2.37447098,Nylon66
diphenylether,155,1.87737302,Nylon66
diphenylether,150,1.47451475,Nylon66
diphenylether,145,1.15024368,Nylon66
diphenylether,140,0.89101364,Nylon66
diphenylether,135,0.68521951,Nylon66
diphenylether,130,0.52300958,Nylon66
diphenylether,125,0.39609123,Nylon66
diphenylether,120,0.29754015,Nylon66
diphenylether,115,0.2216197,Nylon66
diphenylether,110,0.16361376,Nylon66
diphenylether,105,0.11967546,Nylon66
diphenylether,100,0.0866918,Nylon66
diphenylether,95,0.06216431,Nylon66
diphenylether,90,0.04410474,Nylon66
diphenylether,85,0.03094489,Nylon66
diphenylether,80,0.02145944,Nylon66
diphenylether,75,0.01470032,Nylon66
diphenylether,70,0.00994152,Nylon66
diphenylether,65,0.00663317,Nylon66
diphenylether,60,0.00436356,Nylon66
diphenylether,55,0.00282816,Nylon66
diphenylether,50,0.00180462,Nylon66
diphenylether,45,0.00113277,Nylon66
diphenylether,40,0.00069888,Nylon66
diphenylether,35,0.00042344,Nylon66
diphenylether,30,0.00025171,Nylon66
diphenylether,25,0.00014665,Nylon66
dodecane,160,0.17528825,Nylon66
dodecane,155,0.13168947,Nylon66
dodecane,150,0.09819812,Nylon66
dodecane,145,0.07264908,Nylon66
dodecane,140,0.0533028,Nylon66
dodecane,135,0.03876838,Nylon66
dodecane,130,0.02793974,Nylon66
dodecane,125,0.01994287,Nylon66
dodecane,120,0.01409192,Nylon66
dodecane,115,0.00985276,Nylon66
dodecane,110,0.00681287,Nylon66
dodecane,105,0.00465646,Nylon66
dodecane,100,0.00314408,Nylon66
dodecane,95,0.00209599,Nylon66
dodecane,90,0.00137872,Nylon66
dodecane,85,0.00089427,Nylon66
dodecane,80,0.00057158,Nylon66
dodecane,75,0.00035974,Nylon66
dodecane,70,0.00022277,Nylon66
dodecane,65,0.00013563,Nylon66
dodecane,60,8.11E-05,Nylon66
dodecane,55,4.76E-05,Nylon66
dodecane,50,2.74E-05,Nylon66
dodecane,45,1.55E-05,Nylon66
dodecane,40,8.52E-06,Nylon66
dodecane,35,4.59E-06,Nylon66
dodecane,30,2.42E-06,Nylon66
dodecane,25,1.24E-06,Nylon66
ethanol,160,22.8036832,Nylon66
ethanol,155,19.60534958,Nylon66
ethanol,150,16.64368432,Nylon66
ethanol,145,13.94858733,Nylon66
ethanol,140,11.54005765,Nylon66
ethanol,135,9.42683591,Nylon66
ethanol,130,7.60619679,Nylon66
ethanol,125,6.06509933,Nylon66
ethanol,120,4.78236421,Nylon66
ethanol,115,3.73136084,Nylon66
ethanol,110,2.8826512,Nylon66
ethanol,105,2.20636061,Nylon66
ethanol,100,1.67396878,Nylon66
ethanol,95,1.25947994,Nylon66
ethanol,90,0.94005391,Nylon66
ethanol,85,0.69620061,Nylon66
ethanol,80,0.51168057,Nylon66
ethanol,75,0.37322647,Nylon66
ethanol,70,0.27017657,Nylon66
ethanol,65,0.19408298,Nylon66
ethanol,60,0.1383335,Nylon66
ethanol,55,0.09780883,Nylon66
ethanol,50,0.0685847,Nylon66
ethanol,45,0.0476805,Nylon66
ethanol,40,0.03285215,Nylon66
ethanol,35,0.0224244,Nylon66
ethanol,30,0.0151571,Nylon66
ethanol,25,0.01013991,Nylon66
ethylacetate,160,11.89067388,Nylon66
ethylacetate,155,9.96427658,Nylon66
ethylacetate,150,8.26259139,Nylon66
ethylacetate,145,6.77983816,Nylon66
ethylacetate,140,5.50540264,Nylon66
ethylacetate,135,4.42470493,Nylon66
ethylacetate,130,3.52031594,Nylon66
ethylacetate,125,2.7730728,Nylon66
ethylacetate,120,2.16320784,Nylon66
ethylacetate,115,1.671302,Nylon66
ethylacetate,110,1.27900751,Nylon66
ethylacetate,105,0.96955165,Nylon66
ethylacetate,100,0.72801488,Nylon66
ethylacetate,95,0.5414339,Nylon66
ethylacetate,90,0.39877123,Nylon66
ethylacetate,85,0.29079454,Nylon66
ethylacetate,80,0.20990303,Nylon66
ethylacetate,75,0.14992825,Nylon66
ethylacetate,70,0.10593035,Nylon66
ethylacetate,65,0.07400282,Nylon66
ethylacetate,60,0.05109348,Nylon66
ethylacetate,55,0.03484584,Nylon66
ethylacetate,50,0.02346197,Nylon66
ethylacetate,45,0.01558643,Nylon66
ethylacetate,40,0.01020984,Nylon66
ethylacetate,35,0.00658996,Nylon66
ethylacetate,30,0.00418812,Nylon66
ethylacetate,25,0.00261871,Nylon66
glycol,160,1.51150696,Nylon66
glycol,155,1.16571026,Nylon66
glycol,150,0.8961167,Nylon66
glycol,145,0.6865231,Nylon66
glycol,140,0.52408136,Nylon66
glycol,135,0.39860605,Nylon66
glycol,130,0.3020298,Nylon66
glycol,125,0.2279736,Nylon66
glycol,120,0.17140511,Nylon66
glycol,115,0.12836583,Nylon66
glycol,110,0.09575206,Nylon66
glycol,105,0.07113937,Nylon66
glycol,100,0.05264139,Nylon66
glycol,95,0.03879656,Nylon66
glycol,90,0.02847736,Nylon66
glycol,85,0.02081794,Nylon66
glycol,80,0.01515632,Nylon66
glycol,75,0.01098881,Nylon66
glycol,70,0.00793386,Nylon66
glycol,65,0.00570381,Nylon66
glycol,60,0.00408274,Nylon66
glycol,55,0.00290935,Nylon66
glycol,50,0.00206366,Nylon66
glycol,45,0.00145683,Nylon66
glycol,40,0.00102334,Nylon66
glycol,35,0.00071512,Nylon66
glycol,30,0.00049703,Nylon66
glycol,25,0.00034347,Nylon66
n-heptane,160,0.41439069,Nylon66
n-heptane,155,0.31079021,Nylon66
n-heptane,150,0.2314496,Nylon66
n-heptane,145,0.17106775,Nylon66
n-heptane,140,0.12542834,Nylon66
n-heptane,135,0.09118696,Nylon66
n-heptane,130,0.06570092,Nylon66
n-heptane,125,0.04689226,Nylon66
n-heptane,120,0.03313649,Nylon66
n-heptane,115,0.02317214,Nylon66
n-heptane,110,0.01602697,Nylon66
n-heptane,105,0.01095786,Nylon66
n-heptane,100,0.00740187,Nylon66
n-heptane,95,0.00493676,Nylon66
n-heptane,90,0.00324905,Nylon66
n-heptane,85,0.00210864,Nylon66
n-heptane,80,0.00134859,Nylon66
n-heptane,75,0.00084933,Nylon66
n-heptane,70,0.00052634,Nylon66
n-heptane,65,0.00032069,Nylon66
n-heptane,60,0.00019195,Nylon66
n-heptane,55,0.00011276,Nylon66
n-heptane,50,6.50E-05,Nylon66
n-heptane,45,3.67E-05,Nylon66
n-heptane,40,2.02E-05,Nylon66
n-heptane,35,1.09E-05,Nylon66
n-heptane,30,5.75E-06,Nylon66
n-heptane,25,2.95E-06,Nylon66
hexane,160,0.55436449,Nylon66
hexane,155,0.41534832,Nylon66
hexane,150,0.30906235,Nylon66
hexane,145,0.22828235,Nylon66
hexane,140,0.16729079,Nylon66
hexane,135,0.12157058,Nylon66
hexane,130,0.08756394,Nylon66
hexane,125,0.0624805,Nylon66
hexane,120,0.0441433,Nylon66
hexane,115,0.03086456,Nylon66
hexane,110,0.02134508,Nylon66
hexane,105,0.01459277,Nylon66
hexane,100,0.00985667,Nylon66
hexane,95,0.00657378,Nylon66
hexane,90,0.00432635,Nylon66
hexane,85,0.00280779,Nylon66
hexane,80,0.00179575,Nylon66
hexane,75,0.00113097,Nylon66
hexane,70,0.00070088,Nylon66
hexane,65,0.00042706,Nylon66
hexane,60,0.00025562,Nylon66
hexane,55,0.00015017,Nylon66
hexane,50,8.65E-05,Nylon66
hexane,45,4.88E-05,Nylon66
hexane,40,2.70E-05,Nylon66
hexane,35,1.46E-05,Nylon66
hexane,30,7.66E-06,Nylon66
hexane,25,3.94E-06,Nylon66
isopropylamine,160,24.40442915,Nylon66
isopropylamine,155,21.67141362,Nylon66
isopropylamine,150,19.07742205,Nylon66
isopropylamine,145,16.64036116,Nylon66
isopropylamine,140,14.37542526,Nylon66
isopropylamine,135,12.29492666,Nylon66
isopropylamine,130,10.40745162,Nylon66
isopropylamine,125,8.71747786,Nylon66
isopropylamine,120,7.22465327,Nylon66
isopropylamine,115,5.92405861,Nylon66
isopropylamine,110,4.80658162,Nylon66
isopropylamine,105,3.85956676,Nylon66
isopropylamine,100,3.06773085,Nylon66
isopropylamine,95,2.41420092,Nylon66
isopropylamine,90,1.88152439,Nylon66
isopropylamine,85,1.45250376,Nylon66
isopropylamine,80,1.11088019,Nylon66
isopropylamine,75,0.84179607,Nylon66
isopropylamine,70,0.6320532,Nylon66
isopropylamine,65,0.47021242,Nylon66
isopropylamine,60,0.34656371,Nylon66
isopropylamine,55,0.2530136,Nylon66
isopropylamine,50,0.18292335,Nylon66
isopropylamine,45,0.13092484,Nylon66
isopropylamine,40,0.09273374,Nylon66
isopropylamine,35,0.06497176,Nylon66
isopropylamine,30,0.04500548,Nylon66
isopropylamine,25,0.03080478,Nylon66
methanol,160,21.39661169,Nylon66
methanol,155,17.84893888,Nylon66
methanol,150,14.6812221,Nylon66
methanol,145,11.91245411,Nylon66
methanol,140,9.54175428,Nylon66
methanol,135,7.55113285,Nylon66
methanol,130,5.90960228,Nylon66
methanol,125,4.57803795,Nylon66
methanol,120,3.51374701,Nylon66
methanol,115,2.67416864,Nylon66
methanol,110,2.01949934,Nylon66
methanol,105,1.51423029,Nylon66
methanol,100,1.12781452,Nylon66
methanol,95,0.83471104,Nylon66
methanol,90,0.61404214,Nylon66
methanol,85,0.44905097,Nylon66
methanol,80,0.32648726,Nylon66
methanol,75,0.2360032,Nylon66
methanol,70,0.16960248,Nylon66
methanol,65,0.12116221,Nylon66
methanol,60,0.08603191,Nylon66
methanol,55,0.06070521,Nylon66
methanol,50,0.04255633,Nylon66
methanol,45,0.02963151,Nylon66
methanol,40,0.02048598,Nylon66
methanol,35,0.01405778,Nylon66
methanol,30,0.00957108,Nylon66
methanol,25,0.00646246,Nylon66
methylacetate,160,14.76719474,Nylon66
methylacetate,155,12.46246334,Nylon66
methylacetate,150,10.39486037,Nylon66
methylacetate,145,8.56816515,Nylon66
methylacetate,140,6.97930837,Nylon66
methylacetate,135,5.61874315,Nylon66
methylacetate,130,4.47151855,Nylon66
methylacetate,125,3.51859903,Nylon66
methylacetate,120,2.73844089,Nylon66
methylacetate,115,2.10848198,Nylon66
methylacetate,110,1.60645077,Nylon66
methylacetate,105,1.21134455,Nylon66
methylacetate,100,0.90409073,Nylon66
methylacetate,95,0.66789478,Nylon66
methylacetate,90,0.48834779,Nylon66
methylacetate,85,0.35335862,Nylon66
methylacetate,80,0.25297403,Nylon66
methylacetate,75,0.17913863,Nylon66
methylacetate,70,0.1254318,Nylon66
methylacetate,65,0.08680768,Nylon66
methylacetate,60,0.05935323,Nylon66
methylacetate,55,0.04007265,Nylon66
methylacetate,50,0.02670117,Nylon66
methylacetate,45,0.01754815,Nylon66
methylacetate,40,0.01136768,Nylon66
methylacetate,35,0.00725358,Nylon66
methylacetate,30,0.00455568,Nylon66
methylacetate,25,0.00281406,Nylon66
butanone,160,15.93486013,Nylon66
butanone,155,13.57549988,Nylon66
butanone,150,11.43946727,Nylon66
butanone,145,9.53273229,Nylon66
butanone,140,7.85524924,Nylon66
butanone,135,6.40100213,Nylon66
butanone,130,5.15860106,Nylon66
butanone,125,4.11233819,Nylon66
butanone,120,3.24349945,Nylon66
butanone,115,2.5316506,Nylon66
butanone,110,1.95590317,Nylon66
butanone,105,1.49594948,Nylon66
butanone,100,1.13281818,Nylon66
butanone,95,0.84937092,Nylon66
butanone,90,0.6305485,Nylon66
butanone,85,0.46342867,Nylon66
butanone,80,0.33714748,Nylon66
butanone,75,0.24273358,Nylon66
butanone,70,0.17289641,Nylon66
butanone,65,0.12179676,Nylon66
butanone,60,0.0848208,Nylon66
butanone,55,0.05836953,Nylon66
butanone,50,0.03967031,Nylon66
butanone,45,0.02661321,Nylon66
butanone,40,0.01761234,Nylon66
butanone,35,0.01149052,Nylon66
butanone,30,0.00738513,Nylon66
butanone,25,0.00467243,Nylon66
ch2cl2,160,25.66127364,Nylon66
ch2cl2,155,23.58240056,Nylon66
ch2cl2,150,21.58260923,Nylon66
ch2cl2,145,19.66750454,Nylon66
ch2cl2,140,17.83705907,Nylon66
ch2cl2,135,16.0951283,Nylon66
ch2cl2,130,14.4447902,Nylon66
ch2cl2,125,12.88812193,Nylon66
ch2cl2,120,11.42778427,Nylon66
ch2cl2,115,10.06572557,Nylon66
ch2cl2,110,8.80330871,Nylon66
ch2cl2,105,7.64157509,Nylon66
ch2cl2,100,6.5809718,Nylon66
ch2cl2,95,5.62097947,Nylon66
ch2cl2,90,4.75996669,Nylon66
ch2cl2,85,3.99537585,Nylon66
ch2cl2,80,3.32343084,Nylon66
ch2cl2,75,2.73935726,Nylon66
ch2cl2,70,2.23730646,Nylon66
ch2cl2,65,1.81063542,Nylon66
ch2cl2,60,1.45213528,Nylon66
ch2cl2,55,1.15428839,Nylon66
ch2cl2,50,0.90954348,Nylon66
ch2cl2,45,0.710572,Nylon66
ch2cl2,40,0.55047872,Nylon66
ch2cl2,35,0.42294403,Nylon66
ch2cl2,30,0.32231762,Nylon66
ch2cl2,25,0.24365651,Nylon66
propyleneglycol,160,5.04453827,Nylon66
propyleneglycol,155,4.02027034,Nylon66
propyleneglycol,150,3.18746943,Nylon66
propyleneglycol,145,2.51465627,Nylon66
propyleneglycol,140,1.97430086,Nylon66
propyleneglycol,135,1.54273229,Nylon66
propyleneglycol,130,1.19987246,Nylon66
propyleneglycol,125,0.92887912,Nylon66
propyleneglycol,120,0.71575654,Nylon66
propyleneglycol,115,0.54896885,Nylon66
propyleneglycol,110,0.41907705,Nylon66
propyleneglycol,105,0.31840889,Nylon66
propyleneglycol,100,0.24076726,Nylon66
propyleneglycol,95,0.18117611,Nylon66
propyleneglycol,90,0.13566265,Nylon66
propyleneglycol,85,0.1010728,Nylon66
propyleneglycol,80,0.07491609,Nylon66
propyleneglycol,75,0.05523673,Nylon66
propyleneglycol,70,0.04050701,Nylon66
propyleneglycol,65,0.02954001,Nylon66
propyleneglycol,60,0.0214185,Nylon66
propyleneglycol,55,0.01543743,Nylon66
propyleneglycol,50,0.01105776,Nylon66
propyleneglycol,45,0.0078696,Nylon66
propyleneglycol,40,0.00556298,Nylon66
propyleneglycol,35,0.00390475,Nylon66
propyleneglycol,30,0.00272057,Nylon66
propyleneglycol,25,0.00188081,Nylon66
tert-butanol,160,13.58732415,Nylon66
tert-butanol,155,11.43024675,Nylon66
tert-butanol,150,9.51756258,Nylon66
tert-butanol,145,7.84503766,Nylon66
tert-butanol,140,6.40252305,Nylon66
tert-butanol,135,5.17493591,Nylon66
tert-butanol,130,4.14365645,Nylon66
tert-butanol,125,3.2878902,Nylon66
tert-butanol,120,2.58600711,Nylon66
tert-butanol,115,2.01665942,Nylon66
tert-butanol,110,1.5596163,Nylon66
tert-butanol,105,1.19634247,Nylon66
tert-butanol,100,0.91031561,Nylon66
tert-butanol,95,0.68714573,Nylon66
tert-butanol,90,0.51454546,Nylon66
tert-butanol,85,0.38220057,Nylon66
tert-butanol,80,0.28158168,Nylon66
tert-butanol,75,0.205729,Nylon66
tert-butanol,70,0.14903151,Nylon66
tert-butanol,65,0.10701573,Nylon66
tert-butanol,60,0.07615222,Nylon66
tert-butanol,55,0.05368403,Nylon66
tert-butanol,50,0.03747845,Nylon66
tert-butanol,45,0.02590138,Nylon66
tert-butanol,40,0.01771267,Nylon66
tert-butanol,35,0.01198021,Nylon66
tert-butanol,30,0.00801027,Nylon66
tert-butanol,25,0.00529174,Nylon66
thf,160,18.57066134,Nylon66
thf,155,16.15156052,Nylon66
thf,150,13.91320658,Nylon66
thf,145,11.86583509,Nylon66
thf,140,10.01624435,Nylon66
thf,135,8.36670723,Nylon66
thf,130,6.91509094,Nylon66
thf,125,5.65497512,Nylon66
thf,120,4.57600619,Nylon66
thf,115,3.66459562,Nylon66
thf,110,2.90490499,Nylon66
thf,105,2.27979309,Nylon66
thf,100,1.77177333,Nylon66
thf,95,1.36380011,Nylon66
thf,90,1.03988671,Nylon66
thf,85,0.78551494,Nylon66
thf,80,0.58785424,Nylon66
thf,75,0.43583054,Nylon66
thf,70,0.32007828,Nylon66
thf,65,0.2328173,Nylon66
thf,60,0.16768639,Nylon66
thf,55,0.1195587,Nylon66
thf,50,0.08435638,Nylon66
thf,45,0.05887584,Nylon66
thf,40,0.04062979,Nylon66
thf,35,0.02770918,Nylon66
thf,30,0.01866533,Nylon66
thf,25,0.01241134,Nylon66
thp,160,10.57705094,Nylon66
thp,155,8.80012609,Nylon66
thp,150,7.25378359,Nylon66
thp,145,5.92472299,Nylon66
thp,140,4.796112,Nylon66
thp,135,3.84876589,Nylon66
thp,130,3.06234151,Nylon66
thp,125,2.41637887,Nylon66
thp,120,1.89111959,Nylon66
thp,115,1.46811674,Nylon66
thp,110,1.1306139,Nylon66
thp,105,0.86374051,Nylon66
thp,100,0.65455964,Nylon66
thp,95,0.49200902,Nylon66
thp,90,0.3667716,Nylon66
thp,85,0.27110604,Nylon66