Solvent,Temperature (°C),Solubility (%),Polymer
propanol,160,99.9954608,HDPE
propanol,155,99.98915941,HDPE
propanol,150,99.97519755,HDPE
propanol,145,99.9998018,HDPE
propanol,140,99.99923705,HDPE
propanol,135,64.29634016,HDPE
propanol,130,30.30557927,HDPE
propanol,125,16.45985162,HDPE
propanol,120,9.50694958,HDPE
propanol,115,5.62129785,HDPE
propanol,110,3.34797715,HDPE
propanol,105,1.99187678,HDPE
propanol,100,1.17806309,HDPE
propanol,95,0.69050098,HDPE
propanol,90,0.4002588,HDPE
propanol,85,0.22910795,HDPE
propanol,80,0.12934589,HDPE
propanol,75,0.07195412,HDPE
propanol,70,0.03940713,HDPE
propanol,65,0.02123041,HDPE
propanol,60,0.01124244,HDPE
propanol,55,0.00584698,HDPE
propanol,50,0.00298406,HDPE
propanol,45,0.00149316,HDPE
propanol,40,0.00073185,HDPE
propanol,35,0.00035101,HDPE
propanol,30,0.00016457,HDPE
propanol,25,7.53E-05,HDPE
2-propanol,160,99.9990062,HDPE
2-propanol,155,99.99743405,HDPE
2-propanol,150,99.99355529,HDPE
2-propanol,145,99.9844744,HDPE
2-propanol,140,99.96447599,HDPE
2-propanol,135,66.59485594,HDPE
2-propanol,130,32.26680556,HDPE
2-propanol,125,17.50986977,HDPE
2-propanol,120,10.09945466,HDPE
2-propanol,115,5.96651966,HDPE
2-propanol,110,3.55189295,HDPE
2-propanol,105,2.11270142,HDPE
2-propanol,100,1.24941848,HDPE
2-propanol,95,0.73233072,HDPE
2-propanol,90,0.42453193,HDPE
2-propanol,85,0.24302322,HDPE
2-propanol,80,0.13721518,HDPE
2-propanol,75,0.07633882,HDPE
2-propanol,70,0.04181182,HDPE
2-propanol,65,0.02252726,HDPE
2-propanol,60,0.01192957,HDPE
2-propanol,55,0.00620435,HDPE
2-propanol,50,0.00316633,HDPE
2-propanol,45,0.00158425,HDPE
2-propanol,40,0.0007764,HDPE
2-propanol,35,0.00037232,HDPE
2-propanol,30,0.00017452,HDPE
2-propanol,25,7.99E-05,HDPE
propanone,160,99.99870977,HDPE
propanone,155,99.99805819,HDPE
propanone,150,99.99706304,HDPE
propanone,145,99.99554291,HDPE
propanone,140,99.99322355,HDPE
propanone,135,76.62623127,HDPE
propanone,130,40.06745202,HDPE
propanone,125,21.24251944,HDPE
propanone,120,12.3087647,HDPE
propanone,115,7.36072344,HDPE
propanone,110,4.44244562,HDPE
propanone,105,2.67866801,HDPE
propanone,100,1.60503268,HDPE
propanone,95,0.95266012,HDPE
propanone,90,0.55895893,HDPE
propanone,85,0.32371828,HDPE
propanone,80,0.18484254,HDPE
propanone,75,0.10395992,HDPE
propanone,70,0.05754184,HDPE
propanone,65,0.03131832,HDPE
propanone,60,0.01674779,HDPE
propanone,55,0.00879228,HDPE
propanone,50,0.00452751,HDPE
propanone,45,0.00228477,HDPE
propanone,40,0.00112886,HDPE
propanone,35,0.00054553,HDPE
propanone,30,0.00025758,HDPE
propanone,25,0.0001187,HDPE
acetylacetone,160,99.99846756,HDPE
acetylacetone,155,99.99467652,HDPE
acetylacetone,150,99.98191042,HDPE
acetylacetone,145,99.94201025,HDPE
acetylacetone,140,99.99906631,HDPE
acetylacetone,135,27.20519708,HDPE
acetylacetone,130,11.63417327,HDPE
acetylacetone,125,6.38743553,HDPE
acetylacetone,120,3.72141055,HDPE
acetylacetone,115,2.21369561,HDPE
acetylacetone,110,1.3239528,HDPE
acetylacetone,105,0.78989574,HDPE
acetylacetone,100,0.46798528,HDPE
acetylacetone,95,0.2745358,HDPE
acetylacetone,90,0.15914998,HDPE
acetylacetone,85,0.09103762,HDPE
acetylacetone,80,0.05132661,HDPE
acetylacetone,75,0.02849376,HDPE
acetylacetone,70,0.0155619,HDPE
acetylacetone,65,0.00835451,HDPE
acetylacetone,60,0.00440522,HDPE
acetylacetone,55,0.0022795,HDPE
acetylacetone,50,0.00115655,HDPE
acetylacetone,45,0.00057484,HDPE
acetylacetone,40,0.00027963,HDPE
acetylacetone,35,0.00013299,HDPE
acetylacetone,30,6.18E-05,HDPE
acetylacetone,25,2.80E-05,HDPE
benzene,160,99.97230219,HDPE
benzene,155,99.96755501,HDPE
benzene,150,99.96196243,HDPE
benzene,145,99.95536891,HDPE
benzene,140,99.94758946,HDPE
benzene,135,76.6417931,HDPE
benzene,130,52.70921809,HDPE
benzene,125,32.98406733,HDPE
benzene,120,19.86122074,HDPE
benzene,115,11.90694779,HDPE
benzene,110,7.15235653,HDPE
benzene,105,4.2933075,HDPE
benzene,100,2.56536886,HDPE
benzene,95,1.52087489,HDPE
benzene,90,0.8923172,HDPE
benzene,85,0.51710561,HDPE
benzene,80,0.29553297,HDPE
benzene,75,0.16636053,HDPE
benzene,70,0.09213763,HDPE
benzene,65,0.05015714,HDPE
benzene,60,0.02681166,HDPE
benzene,55,0.01406049,HDPE
benzene,50,0.00722682,HDPE
benzene,45,0.00363691,HDPE
benzene,40,0.00179021,HDPE
benzene,35,0.00086097,HDPE
benzene,30,0.00040409,HDPE
benzene,25,0.00018486,HDPE
chcl3,160,99.97374188,HDPE
chcl3,155,99.96906114,HDPE
chcl3,150,99.9635267,HDPE
chcl3,145,99.95698027,HDPE
chcl3,140,99.94923386,HDPE
chcl3,135,68.42607566,HDPE
chcl3,130,42.72575409,HDPE
chcl3,125,24.98538757,HDPE
chcl3,120,14.42759453,HDPE
chcl3,115,8.43688568,HDPE
chcl3,110,4.99473149,HDPE
chcl3,105,2.9733313,HDPE
chcl3,100,1.76866147,HDPE
chcl3,95,1.04631415,HDPE
chcl3,90,0.61349994,HDPE
chcl3,85,0.35565117,HDPE
chcl3,80,0.20346212,HDPE
chcl3,75,0.11469879,HDPE
chcl3,70,0.06363923,HDPE
chcl3,65,0.03471526,HDPE
chcl3,60,0.0186002,HDPE
chcl3,55,0.00977915,HDPE
chcl3,50,0.00504028,HDPE
chcl3,45,0.0025442,HDPE
chcl3,40,0.00125645,HDPE
chcl3,35,0.00060641,HDPE
chcl3,30,0.00028571,HDPE
chcl3,25,0.00013124,HDPE
cyclohexane,160,100,HDPE
cyclohexane,155,100,HDPE
cyclohexane,150,100,HDPE
cyclohexane,145,100,HDPE
cyclohexane,140,100,HDPE
cyclohexane,135,77.37924068,HDPE
cyclohexane,130,57.67391433,HDPE
cyclohexane,125,41.4591388,HDPE
cyclohexane,120,28.81812287,HDPE
cyclohexane,115,19.43601794,HDPE
cyclohexane,110,12.76558976,HDPE
cyclohexane,105,8.19267624,HDPE
cyclohexane,100,5.15158757,HDPE
cyclohexane,95,3.18010345,HDPE
cyclohexane,90,1.92965255,HDPE
cyclohexane,85,1.15174949,HDPE
cyclohexane,80,0.67637779,HDPE
cyclohexane,75,0.39078906,HDPE
cyclohexane,70,0.22206662,HDPE
cyclohexane,65,0.1240517,HDPE
cyclohexane,60,0.06808244,HDPE
cyclohexane,55,0.03668349,HDPE
cyclohexane,50,0.01938934,HDPE
cyclohexane,45,0.01004463,HDPE
cyclohexane,40,0.00509534,HDPE
cyclohexane,35,0.00252838,HDPE
cyclohexane,30,0.00122594,HDPE
cyclohexane,25,0.00058016,HDPE
cyclohexanol,160,99.99338911,HDPE
cyclohexanol,155,99.98782485,HDPE
cyclohexanol,150,99.9778293,HDPE
cyclohexanol,145,99.96025345,HDPE
cyclohexanol,140,99.93012099,HDPE
cyclohexanol,135,59.94829415,HDPE
cyclohexanol,130,30.43736773,HDPE
cyclohexanol,125,16.79520026,HDPE
cyclohexanol,120,9.75719022,HDPE
cyclohexanol,115,5.79936587,HDPE
cyclohexanol,110,3.47452367,HDPE
cyclohexanol,105,2.08096169,HDPE
cyclohexanol,100,1.2396522,HDPE
cyclohexanol,95,0.73212765,HDPE
cyclohexanol,90,0.42771402,HDPE
cyclohexanol,85,0.24677178,HDPE
cyclohexanol,80,0.14043338,HDPE
cyclohexanol,75,0.07874666,HDPE
cyclohexanol,70,0.04347004,HDPE
cyclohexanol,65,0.02360375,HDPE
cyclohexanol,60,0.01259656,HDPE
cyclohexanol,55,0.00660155,HDPE
cyclohexanol,50,0.00339466,HDPE
cyclohexanol,45,0.00171127,HDPE
cyclohexanol,40,0.0008449,HDPE
cyclohexanol,35,0.00040816,HDPE
cyclohexanol,30,0.00019272,HDPE
cyclohexanol,25,8.88E-05,HDPE
"2,3-dihydropyran",160,99.99023141,HDPE
"2,3-dihydropyran",155,99.98854447,HDPE
"2,3-dihydropyran",150,99.98655244,HDPE
"2,3-dihydropyran",145,99.9841981,HDPE
"2,3-dihydropyran",140,99.98141324,HDPE
"2,3-dihydropyran",135,75.50088512,HDPE
"2,3-dihydropyran",130,51.87588291,HDPE
"2,3-dihydropyran",125,33.10266251,HDPE
"2,3-dihydropyran",120,20.44350731,HDPE
"2,3-dihydropyran",115,12.51134961,HDPE
"2,3-dihydropyran",110,7.63051621,HDPE
"2,3-dihydropyran",105,4.63284122,HDPE
"2,3-dihydropyran",100,2.79333713,HDPE
"2,3-dihydropyran",95,1.66866402,HDPE
"2,3-dihydropyran",90,0.98570592,HDPE
"2,3-dihydropyran",85,0.57488756,HDPE
"2,3-dihydropyran",80,0.33061278,HDPE
"2,3-dihydropyran",75,0.18727606,HDPE
"2,3-dihydropyran",70,0.10438665,HDPE
"2,3-dihydropyran",65,0.0572017,HDPE
"2,3-dihydropyran",60,0.0307883,HDPE
"2,3-dihydropyran",55,0.01626243,HDPE
"2,3-dihydropyran",50,0.00842187,HDPE
"2,3-dihydropyran",45,0.00427207,HDPE
"2,3-dihydropyran",40,0.00212051,HDPE
"2,3-dihydropyran",35,0.00102884,HDPE
"2,3-dihydropyran",30,0.00048739,HDPE
"2,3-dihydropyran",25,0.00022517,HDPE
dimethylformamide,160,99.96804677,HDPE
dimethylformamide,155,99.99984902,HDPE
dimethylformamide,150,99.9996908,HDPE
dimethylformamide,145,99.99934177,HDPE
dimethylformamide,140,99.99855657,HDPE
dimethylformamide,135,54.09876746,HDPE
dimethylformamide,130,22.12689811,HDPE
dimethylformamide,125,12.47203235,HDPE
dimethylformamide,120,7.47509167,HDPE
dimethylformamide,115,4.56233591,HDPE
dimethylformamide,110,2.79256737,HDPE
dimethylformamide,105,1.70205782,HDPE
dimethylformamide,100,1.02902084,HDPE
dimethylformamide,95,0.61565179,HDPE
dimethylformamide,90,0.36393515,HDPE
dimethylformamide,85,0.21231773,HDPE
dimethylformamide,80,0.12212764,HDPE
dimethylformamide,75,0.06920701,HDPE
dimethylformamide,70,0.03860658,HDPE
dimethylformamide,65,0.02118465,HDPE
dimethylformamide,60,0.01142616,HDPE
dimethylformamide,55,0.00605282,HDPE
dimethylformamide,50,0.00314658,HDPE
dimethylformamide,45,0.00160387,HDPE
dimethylformamide,40,0.00080085,HDPE
dimethylformamide,35,0.00039135,HDPE
dimethylformamide,30,0.00018697,HDPE
dimethylformamide,25,8.72E-05,HDPE
dimethylsulfoxide,160,28.3869214,HDPE
dimethylsulfoxide,155,26.11645193,HDPE
dimethylsulfoxide,150,24.34474758,HDPE
dimethylsulfoxide,145,22.87109505,HDPE
dimethylsulfoxide,140,21.60228371,HDPE
dimethylsulfoxide,135,11.23926941,HDPE
dimethylsulfoxide,130,6.77810939,HDPE
dimethylsulfoxide,125,4.22209098,HDPE
dimethylsulfoxide,120,2.64903287,HDPE
dimethylsulfoxide,115,1.65789553,HDPE
dimethylsulfoxide,110,1.03022105,HDPE
dimethylsulfoxide,105,0.63406259,HDPE
dimethylsulfoxide,100,0.38594062,HDPE
dimethylsulfoxide,95,0.23209395,HDPE
dimethylsulfoxide,90,0.13779485,HDPE
dimethylsulfoxide,85,0.08071357,HDPE
dimethylsulfoxide,80,0.04661673,HDPE
dimethylsulfoxide,75,0.02653132,HDPE
dimethylsulfoxide,70,0.01487072,HDPE
dimethylsulfoxide,65,0.00820322,HDPE
dimethylsulfoxide,60,0.00445066,HDPE
dimethylsulfoxide,55,0.00237325,HDPE
dimethylsulfoxide,50,0.00124284,HDPE
dimethylsulfoxide,45,0.00063869,HDPE
dimethylsulfoxide,40,0.00032181,HDPE
dimethylsulfoxide,35,0.00015884,HDPE
dimethylsulfoxide,30,7.67E-05,HDPE
dimethylsulfoxide,25,3.62E-05,HDPE
diphenylether,160,99.94279676,HDPE
diphenylether,155,99.92940787,HDPE
diphenylether,150,99.91280543,HDPE
diphenylether,145,99.89221082,HDPE
diphenylether,140,99.99975035,HDPE
diphenylether,135,53.29229917,HDPE
diphenylether,130,25.56683263,HDPE
diphenylether,125,13.61399019,HDPE
diphenylether,120,7.77228759,HDPE
diphenylether,115,4.58488024,HDPE
diphenylether,110,2.74117775,HDPE
diphenylether,105,1.64342628,HDPE
diphenylether,100,0.98172998,HDPE
diphenylether,95,0.58194468,HDPE
diphenylether,90,0.3413552,HDPE
diphenylether,85,0.19774011,HDPE
diphenylether,80,0.11294896,HDPE
diphenylether,75,0.06353759,HDPE
diphenylether,70,0.03516219,HDPE
diphenylether,65,0.01912465,HDPE
diphenylether,60,0.01021354,HDPE
diphenylether,55,0.00535081,HDPE
diphenylether,50,0.00274731,HDPE
diphenylether,45,0.00138107,HDPE
diphenylether,40,0.00067902,HDPE
diphenylether,35,0.00032617,HDPE
diphenylether,30,0.00015289,HDPE
diphenylether,25,6.99E-05,HDPE
dodecane,160,100,HDPE
dodecane,155,100,HDPE
dodecane,150,100,HDPE
dodecane,145,100,HDPE
dodecane,140,100,HDPE
dodecane,135,62.61050993,HDPE
dodecane,130,39.78679662,HDPE
dodecane,125,25.40274982,HDPE
dodecane,120,16.20000016,HDPE
dodecane,115,10.28029475,HDPE
dodecane,110,6.47492136,HDPE
dodecane,105,4.040139,HDPE
dodecane,100,2.49391055,HDPE
dodecane,95,1.52125463,HDPE
dodecane,90,0.91611698,HDPE
dodecane,85,0.54421002,HDPE
dodecane,80,0.31864966,HDPE
dodecane,75,0.18376726,HDPE
dodecane,70,0.1043058,HDPE
dodecane,65,0.05822458,HDPE
dodecane,60,0.0319391,HDPE
dodecane,55,0.01720295,HDPE
dodecane,50,0.00909021,HDPE
dodecane,45,0.00470805,HDPE
dodecane,40,0.00238773,HDPE
dodecane,35,0.00118458,HDPE
dodecane,30,0.00057425,HDPE
dodecane,25,0.0002717,HDPE
ethanol,160,99.99742421,HDPE
ethanol,155,99.99132758,HDPE
ethanol,150,99.9734415,HDPE
ethanol,145,99.99956401,HDPE
ethanol,140,99.99748978,HDPE
ethanol,135,61.16126056,HDPE
ethanol,130,24.72514873,HDPE
ethanol,125,13.24330895,HDPE
ethanol,120,7.6031211,HDPE
ethanol,115,4.47103963,HDPE
ethanol,110,2.64753513,HDPE
ethanol,105,1.56548688,HDPE
ethanol,100,0.91993473,HDPE
ethanol,95,0.53563184,HDPE
ethanol,90,0.3083911,HDPE
ethanol,85,0.17531989,HDPE
ethanol,80,0.09830253,HDPE
ethanol,75,0.05431182,HDPE
ethanol,70,0.02954313,HDPE
ethanol,65,0.0158091,HDPE
ethanol,60,0.00831585,HDPE
ethanol,55,0.00429644,HDPE
ethanol,50,0.00217847,HDPE
ethanol,45,0.00108307,HDPE
ethanol,40,0.0005275,HDPE
ethanol,35,0.00025143,HDPE
ethanol,30,0.00011716,HDPE
ethanol,25,5.33E-05,HDPE
ethylacetate,160,99.98159714,HDPE
ethylacetate,155,99.97655892,HDPE
ethylacetate,150,99.97012419,HDPE
ethylacetate,145,99.96190854,HDPE
ethylacetate,140,99.95142449,HDPE
ethylacetate,135,70.41869572,HDPE
ethylacetate,130,39.86641308,HDPE
ethylacetate,125,22.06999181,HDPE
ethylacetate,120,12.79632132,HDPE
ethylacetate,115,7.61662117,HDPE
ethylacetate,110,4.57982064,HDPE
ethylacetate,105,2.75601036,HDPE
ethylacetate,100,1.65051035,HDPE
ethylacetate,95,0.98016284,HDPE
ethylacetate,90,0.57578067,HDPE
ethylacetate,85,0.33398478,HDPE
ethylacetate,80,0.19103635,HDPE
ethylacetate,75,0.10763165,HDPE
ethylacetate,70,0.05967251,HDPE
ethylacetate,65,0.03252568,HDPE
ethylacetate,60,0.0174147,HDPE
ethylacetate,55,0.00915087,HDPE
ethylacetate,50,0.00471493,HDPE
ethylacetate,45,0.00237984,HDPE
ethylacetate,40,0.00117559,HDPE
ethylacetate,35,0.00056773,HDPE
ethylacetate,30,0.00026776,HDPE
ethylacetate,25,0.00012318,HDPE
glycol,160,5.40822817,HDPE
glycol,155,4.98312066,HDPE
glycol,150,4.59300146,HDPE
glycol,145,4.23456056,HDPE
glycol,140,3.90493762,HDPE
glycol,135,2.24524303,HDPE
glycol,130,1.32612304,HDPE
glycol,125,0.79005138,HDPE
glycol,120,0.47062888,HDPE
glycol,115,0.27895353,HDPE
glycol,110,0.16402635,HDPE
glycol,105,0.0954926,HDPE
glycol,100,0.05496714,HDPE
glycol,95,0.03125132,HDPE
glycol,90,0.01753512,HDPE
glycol,85,0.00970325,HDPE
glycol,80,0.00529192,HDPE
glycol,75,0.00284265,HDPE
glycol,70,0.00150305,HDPE
glycol,65,0.00078178,HDPE
glycol,60,0.00039972,HDPE
glycol,55,0.00020076,HDPE
glycol,50,9.90E-05,HDPE
glycol,45,4.79E-05,HDPE
glycol,40,2.27E-05,HDPE
glycol,35,1.05E-05,HDPE
glycol,30,4.77E-06,HDPE
glycol,25,2.11E-06,HDPE
n-heptane,160,100,HDPE
n-heptane,155,100,HDPE
n-heptane,150,100,HDPE
n-heptane,145,100,HDPE
n-heptane,140,100,HDPE
n-heptane,135,73.98575253,HDPE
n-heptane,130,52.8778967,HDPE
n-heptane,125,36.64608309,HDPE
n-heptane,120,24.72551929,HDPE
n-heptane,115,16.30044096,HDPE
n-heptane,110,10.53078928,HDPE
n-heptane,105,6.68140553,HDPE
n-heptane,100,4.16918409,HDPE
n-heptane,95,2.56087199,HDPE
n-heptane,90,1.54902449,HDPE
n-heptane,85,0.92277272,HDPE
n-heptane,80,0.54127899,HDPE
n-heptane,75,0.31252287,HDPE
n-heptane,70,0.17752583,HDPE
n-heptane,65,0.09915159,HDPE
n-heptane,60,0.05441249,HDPE
n-heptane,55,0.02931765,HDPE
n-heptane,50,0.01549649,HDPE
n-heptane,45,0.00802834,HDPE
n-heptane,40,0.0040728,HDPE
n-heptane,35,0.00202112,HDPE
n-heptane,30,0.00098006,HDPE
n-heptane,25,0.00046384,HDPE
hexane,160,100,HDPE
hexane,155,100,HDPE
hexane,150,100,HDPE
hexane,145,100,HDPE
hexane,140,100,HDPE
hexane,135,76.86333933,HDPE
hexane,130,56.82410937,HDPE
hexane,125,40.50047079,HDPE
hexane,120,27.92993653,HDPE
hexane,115,18.71305724,HDPE
hexane,110,12.22863081,HDPE
hexane,105,7.81957917,HDPE
hexane,100,4.90484819,HDPE
hexane,95,3.02294762,HDPE
hexane,90,1.832478,HDPE
hexane,85,1.0931165,HDPE
hexane,80,0.64174551,HDPE
hexane,75,0.37072767,HDPE
hexane,70,0.21065965,HDPE
hexane,65,0.11768334,HDPE
hexane,60,0.06459208,HDPE
hexane,55,0.03480631,HDPE
hexane,50,0.01839928,HDPE
hexane,45,0.00953294,HDPE
hexane,40,0.00483643,HDPE
hexane,35,0.00240025,HDPE
hexane,30,0.00116399,HDPE
hexane,25,0.00055093,HDPE
isopropylamine,160,99.99967372,HDPE
isopropylamine,155,99.99955744,HDPE
isopropylamine,150,99.99939508,HDPE
isopropylamine,145,99.9991672,HDPE
isopropylamine,140,99.99884604,HDPE
isopropylamine,135,79.72081753,HDPE
isopropylamine,130,55.49490118,HDPE
isopropylamine,125,35.41614399,HDPE
isopropylamine,120,22.01744768,HDPE
isopropylamine,115,13.583573,HDPE
isopropylamine,110,8.3305098,HDPE
isopropylamine,105,5.07009111,HDPE
isopropylamine,100,3.05645876,HDPE
isopropylamine,95,1.82209857,HDPE
isopropylamine,90,1.07274105,HDPE
isopropylamine,85,0.62301916,HDPE
isopropylamine,80,0.35658978,HDPE
isopropylamine,75,0.20096211,HDPE
isopropylamine,70,0.11142305,HDPE
isopropylamine,65,0.06072918,HDPE
isopropylamine,60,0.03251065,HDPE
isopropylamine,55,0.01708029,HDPE
isopropylamine,50,0.00879889,HDPE
isopropylamine,45,0.00444045,HDPE
isopropylamine,40,0.00219319,HDPE
isopropylamine,35,0.00105908,HDPE
isopropylamine,30,0.00049948,HDPE
isopropylamine,25,0.0002298,HDPE
methanol,160,99.98520826,HDPE
methanol,155,99.98913065,HDPE
methanol,150,99.97989629,HDPE
methanol,145,99.99861929,HDPE
methanol,140,99.99908278,HDPE
methanol,135,18.80514535,HDPE
methanol,130,9.75102662,HDPE
methanol,125,5.55401465,HDPE
methanol,120,3.25595554,HDPE
methanol,115,1.92546276,HDPE
methanol,110,1.13814897,HDPE
methanol,105,0.6691171,HDPE
methanol,100,0.39005714,HDPE
methanol,95,0.22501484,HDPE
methanol,90,0.12827388,HDPE
methanol,85,0.07218434,HDPE
methanol,80,0.04006285,HDPE
methanol,75,0.02191271,HDPE
methanol,70,0.01180286,HDPE
methanol,65,0.00625605,HDPE
methanol,60,0.00326073,HDPE
methanol,55,0.00166993,HDPE
methanol,50,0.00083965,HDPE
methanol,45,0.00041413,HDPE
methanol,40,0.00020018,HDPE
methanol,35,9.47E-05,HDPE
methanol,30,4.39E-05,HDPE
methanol,25,1.98E-05,HDPE
methylacetate,160,99.99915079,HDPE
methylacetate,155,99.99869991,HDPE
methylacetate,150,99.99799331,HDPE
methylacetate,145,99.9968831,HDPE
methylacetate,140,99.99513725,HDPE
methylacetate,135,72.32748203,HDPE
methylacetate,130,36.13762375,HDPE
methylacetate,125,18.339708,HDPE
methylacetate,120,10.29790525,HDPE
methylacetate,115,6.02639876,HDPE
methylacetate,110,3.58086352,HDPE
methylacetate,105,2.13376287,HDPE
methylacetate,100,1.26643861,HDPE
methylacetate,95,0.74562026,HDPE
methylacetate,90,0.43428794,HDPE
methylacetate,85,0.24977221,HDPE
methylacetate,80,0.14164458,HDPE
methylacetate,75,0.07911302,HDPE
methylacetate,70,0.04347693,HDPE
methylacetate,65,0.02348761,HDPE
methylacetate,60,0.0124626,HDPE
methylacetate,55,0.00648918,HDPE
methylacetate,50,0.0033128,HDPE
methylacetate,45,0.00165661,HDPE
methylacetate,40,0.00081067,HDPE
methylacetate,35,0.00038781,HDPE
methylacetate,30,0.00018116,HDPE
methylacetate,25,8.26E-05,HDPE
butanone,160,99.98760817,HDPE
butanone,155,99.98418491,HDPE
butanone,150,99.97980192,HDPE
butanone,145,99.9741916,HDPE
butanone,140,99.96701349,HDPE
butanone,135,74.83887025,HDPE
butanone,130,45.11462395,HDPE
butanone,125,25.60071347,HDPE
butanone,120,15.01062315,HDPE
butanone,115,8.99331133,HDPE
butanone,110,5.43015937,HDPE
butanone,105,3.27670656,HDPE
butanone,100,1.96602894,HDPE
butanone,95,1.16910237,HDPE
butanone,90,0.6874706,HDPE
butanone,85,0.399104,HDPE
butanone,80,0.22845239,HDPE
butanone,75,0.12880198,HDPE
butanone,70,0.07145917,HDPE
butanone,65,0.03897799,HDPE
butanone,60,0.02088494,HDPE
butanone,55,0.01098304,HDPE
butanone,50,0.0056637,HDPE
butanone,45,0.00286129,HDPE
butanone,40,0.00141476,HDPE
butanone,35,0.00068393,HDPE
butanone,30,0.0003229,HDPE
butanone,25,0.00014872,HDPE
ch2cl2,160,99.99933071,HDPE
ch2cl2,155,99.99908762,HDPE
ch2cl2,150,99.99874811,HDPE
ch2cl2,145,99.99827202,HDPE
ch2cl2,140,99.99760214,HDPE
ch2cl2,135,74.43863982,HDPE
ch2cl2,130,47.03863512,HDPE
ch2cl2,125,25.18859921,HDPE
ch2cl2,120,13.38270928,HDPE
ch2cl2,115,7.45781182,HDPE
ch2cl2,110,4.28625041,HDPE
ch2cl2,105,2.49746425,HDPE
ch2cl2,100,1.45934091,HDPE
ch2cl2,95,0.84939488,HDPE
ch2cl2,90,0.4902906,HDPE
ch2cl2,85,0.27983096,HDPE
ch2cl2,80,0.15758467,HDPE
ch2cl2,75,0.08741999,HDPE
ch2cl2,70,0.0477116,HDPE
ch2cl2,65,0.02558997,HDPE
ch2cl2,60,0.01347427,HDPE
ch2cl2,55,0.00695832,HDPE
ch2cl2,50,0.00352081,HDPE
ch2cl2,45,0.00174375,HDPE
ch2cl2,40,0.00084445,HDPE
ch2cl2,35,0.00039943,HDPE
ch2cl2,30,0.00018432,HDPE
ch2cl2,25,8.29E-05,HDPE
propyleneglycol,160,99.99948696,HDPE
propyleneglycol,155,30.42037435,HDPE
propyleneglycol,150,24.51841054,HDPE
propyleneglycol,145,21.23955742,HDPE
propyleneglycol,140,18.82749781,HDPE