Solvent,Temperature (°C),Solubility (%),Polymer
cyclohexane,100,0.00000003,PES
cyclohexane,95,0.00000001,PES
cyclohexane,90,0,PES
cyclohexane,85,0,PES
cyclohexane,80,0,PES
cyclohexane,75,0,PES
cyclohexane,70,0,PES
cyclohexane,65,0,PES
cyclohexane,60,0,PES
cyclohexane,55,0,PES
cyclohexane,50,0,PES
cyclohexane,45,0,PES
cyclohexane,40,0,PES
cyclohexane,35,0,PES
cyclohexane,30,0,PES
cyclohexane,25,0,PES
cyclohexanol,160,0.59923933,PES
cyclohexanol,155,0.31897733,PES
cyclohexanol,150,0.16711581,PES
cyclohexanol,145,0.08610383,PES
cyclohexanol,140,0.04359547,PES
cyclohexanol,135,0.02167481,PES
cyclohexanol,130,0.01057435,PES
cyclohexanol,125,0.0050586,PES
cyclohexanol,120,0.00237126,PES
cyclohexanol,115,0.0010884,PES
cyclohexanol,110,0.00048882,PES
cyclohexanol,105,0.00021465,PES
cyclohexanol,100,0.00009209,PES
cyclohexanol,95,0.00003857,PES
cyclohexanol,90,0.00001576,PES
cyclohexanol,85,0.00000627,PES
cyclohexanol,80,0.00000243,PES
cyclohexanol,75,0.00000092,PES
cyclohexanol,70,0.00000034,PES
cyclohexanol,65,0.00000012,PES
cyclohexanol,60,0.00000004,PES
cyclohexanol,55,0.00000001,PES
cyclohexanol,50,0,PES
cyclohexanol,45,0,PES
cyclohexanol,40,0,PES
cyclohexanol,35,0,PES
cyclohexanol,30,0,PES
cyclohexanol,25,0,PES
"2,3-dihydropyran",160,2.95103711,PES
"2,3-dihydropyran",155,1.68777302,PES
"2,3-dihydropyran",150,0.94755349,PES
"2,3-dihydropyran",145,0.52320238,PES
"2,3-dihydropyran",140,0.28438536,PES
"2,3-dihydropyran",135,0.15221247,PES
"2,3-dihydropyran",130,0.08021877,PES
"2,3-dihydropyran",125,0.04161671,PES
"2,3-dihydropyran",120,0.0212447,PES
"2,3-dihydropyran",115,0.01066625,PES
"2,3-dihydropyran",110,0.00526397,PES
"2,3-dihydropyran",105,0.00255208,PES
"2,3-dihydropyran",100,0.00121472,PES
"2,3-dihydropyran",95,0.00056724,PES
"2,3-dihydropyran",90,0.00025968,PES
"2,3-dihydropyran",85,0.00011646,PES
"2,3-dihydropyran",80,0.00005112,PES
"2,3-dihydropyran",75,0.00002195,PES
"2,3-dihydropyran",70,0.00000921,PES
"2,3-dihydropyran",65,0.00000377,PES
"2,3-dihydropyran",60,0.0000015,PES
"2,3-dihydropyran",55,0.00000059,PES
"2,3-dihydropyran",50,0.00000022,PES
"2,3-dihydropyran",45,0.00000008,PES
"2,3-dihydropyran",40,0.00000003,PES
"2,3-dihydropyran",35,0.00000001,PES
"2,3-dihydropyran",30,0,PES
"2,3-dihydropyran",25,0,PES
dimethylformamide,160,100,PES
dimethylformamide,155,38.89589575,PES
dimethylformamide,150,34.84594367,PES
dimethylformamide,145,30.86877506,PES
dimethylformamide,140,26.98525475,PES
dimethylformamide,135,23.22476657,PES
dimethylformamide,130,19.61873078,PES
dimethylformamide,125,16.20989156,PES
dimethylformamide,120,13.04455095,PES
dimethylformamide,115,10.17472293,PES
dimethylformamide,110,7.65474986,PES
dimethylformamide,105,5.52927153,PES
dimethylformamide,100,3.82313253,PES
dimethylformamide,95,2.5291795,PES
dimethylformamide,90,1.60483268,PES
dimethylformamide,85,0.98144218,PES
dimethylformamide,80,0.5818279,PES
dimethylformamide,75,0.33615304,PES
dimethylformamide,70,0.19005955,PES
dimethylformamide,65,0.10545402,PES
dimethylformamide,60,0.05751331,PES
dimethylformamide,55,0.03085647,PES
dimethylformamide,50,0.01628858,PES
dimethylformamide,45,0.00845859,PES
dimethylformamide,40,0.00431916,PES
dimethylformamide,35,0.00216731,PES
dimethylformamide,30,0.00106794,PES
dimethylformamide,25,0.00051633,PES
dimethylsulfoxide,160,100,PES
dimethylsulfoxide,155,100,PES
dimethylsulfoxide,150,36.43245289,PES
dimethylsulfoxide,145,32.80579256,PES
dimethylsulfoxide,140,29.28052206,PES
dimethylsulfoxide,135,25.86714374,PES
dimethylsulfoxide,130,22.5813663,PES
dimethylsulfoxide,125,19.4385492,PES
dimethylsulfoxide,120,16.4604465,PES
dimethylsulfoxide,115,13.6688022,PES
dimethylsulfoxide,110,11.09246078,PES
dimethylsulfoxide,105,8.75990562,PES
dimethylsulfoxide,100,6.70332272,PES
dimethylsulfoxide,95,4.94920798,PES
dimethylsulfoxide,90,3.51381563,PES
dimethylsulfoxide,85,2.395404,PES
dimethylsulfoxide,80,1.5693207,PES
dimethylsulfoxide,75,0.9912607,PES
dimethylsulfoxide,70,0.60648674,PES
dimethylsulfoxide,65,0.3611656,PES
dimethylsulfoxide,60,0.21019646,PES
dimethylsulfoxide,55,0.11991379,PES
dimethylsulfoxide,50,0.06718077,PES
dimethylsulfoxide,45,0.03699713,PES
dimethylsulfoxide,40,0.02003382,PES
dimethylsulfoxide,35,0.01066491,PES
dimethylsulfoxide,30,0.00557871,PES
dimethylsulfoxide,25,0.00286541,PES
diphenylether,160,0.27774575,PES
diphenylether,155,0.15229632,PES
diphenylether,150,0.08231172,PES
diphenylether,145,0.04380825,PES
diphenylether,140,0.02294062,PES
diphenylether,135,0.01181038,PES
diphenylether,130,0.00597301,PES
diphenylether,125,0.00296521,PES
diphenylether,120,0.00144379,PES
diphenylether,115,0.00068894,PES
diphenylether,110,0.00032189,PES
diphenylether,105,0.00014713,PES
diphenylether,100,0.00006573,PES
diphenylether,95,0.00002867,PES
diphenylether,90,0.0000122,PES
diphenylether,85,0.00000506,PES
diphenylether,80,0.00000204,PES
diphenylether,75,0.0000008,PES
diphenylether,70,0.0000003,PES
diphenylether,65,0.00000011,PES
diphenylether,60,0.00000004,PES
diphenylether,55,0.00000001,PES
diphenylether,50,0,PES
diphenylether,45,0,PES
diphenylether,40,0,PES
diphenylether,35,0,PES
diphenylether,30,0,PES
diphenylether,25,0,PES
dodecane,160,0.00010149,PES
dodecane,155,0.00004821,PES
dodecane,150,0.00002245,PES
dodecane,145,0.00001024,PES
dodecane,140,0.00000457,PES
dodecane,135,0.00000199,PES
dodecane,130,0.00000085,PES
dodecane,125,0.00000035,PES
dodecane,120,0.00000014,PES
dodecane,115,0.00000006,PES
dodecane,110,0.00000002,PES
dodecane,105,0.00000001,PES
dodecane,100,0,PES
dodecane,95,0,PES
dodecane,90,0,PES
dodecane,85,0,PES
dodecane,80,0,PES
dodecane,75,0,PES
dodecane,70,0,PES
dodecane,65,0,PES
dodecane,60,0,PES
dodecane,55,0,PES
dodecane,50,0,PES
dodecane,45,0,PES
dodecane,40,0,PES
dodecane,35,0,PES
dodecane,30,0,PES
dodecane,25,0,PES
ethanol,160,17.53176861,PES
ethanol,155,11.17114052,PES
ethanol,150,6.57992001,PES
ethanol,145,3.62602726,PES
ethanol,140,1.89852854,PES
ethanol,135,0.95688977,PES
ethanol,130,0.46830846,PES
ethanol,125,0.22363391,PES
ethanol,120,0.10444825,PES
ethanol,115,0.04775537,PES
ethanol,110,0.0213781,PES
ethanol,105,0.00936786,PES
ethanol,100,0.0040165,PES
ethanol,95,0.00168406,PES
ethanol,90,0.0006901,PES
ethanol,85,0.0002762,PES
ethanol,80,0.0001079,PES
ethanol,75,0.00004111,PES
ethanol,70,0.00001526,PES
ethanol,65,0.00000552,PES
ethanol,60,0.00000194,PES
ethanol,55,0.00000066,PES
ethanol,50,0.00000022,PES
ethanol,45,0.00000007,PES
ethanol,40,0.00000002,PES
ethanol,35,0.00000001,PES
ethanol,30,0,PES
ethanol,25,0,PES
ethylacetate,160,14.64989445,PES
ethylacetate,155,10.40776082,PES
ethylacetate,150,7.05602721,PES
ethylacetate,145,4.56986959,PES
ethylacetate,140,2.83905875,PES
ethylacetate,135,1.70200967,PES
ethylacetate,130,0.99070029,PES
ethylacetate,125,0.5628088,PES
ethylacetate,120,0.31320892,PES
ethylacetate,115,0.17115454,PES
ethylacetate,110,0.09195892,PES
ethylacetate,105,0.04860731,PES
ethylacetate,100,0.02527857,PES
ethylacetate,95,0.01293159,PES
ethylacetate,90,0.00650455,PES
ethylacetate,85,0.00321519,PES
ethylacetate,80,0.00156077,PES
ethylacetate,75,0.00074353,PES
ethylacetate,70,0.00034733,PES
ethylacetate,65,0.00015897,PES
ethylacetate,60,0.00007122,PES
ethylacetate,55,0.0000312,PES
ethylacetate,50,0.00001336,PES
ethylacetate,45,0.00000558,PES
ethylacetate,40,0.00000227,PES
ethylacetate,35,0.0000009,PES
ethylacetate,30,0.00000035,PES
ethylacetate,25,0.00000013,PES
glycol,160,0.88188026,PES
glycol,155,0.45033785,PES
glycol,150,0.22611056,PES
glycol,145,0.11161386,PES
glycol,140,0.05414904,PES
glycol,135,0.025808,PES
glycol,130,0.01207831,PES
glycol,125,0.00554799,PES
glycol,120,0.00249993,PES
glycol,115,0.00110451,PES
glycol,110,0.00047823,PES
glycol,105,0.00020282,PES
glycol,100,0.00008421,PES
glycol,95,0.00003421,PES
glycol,90,0.00001359,PES
glycol,85,0.00000528,PES
glycol,80,0.000002,PES
glycol,75,0.00000074,PES
glycol,70,0.00000027,PES
glycol,65,0.00000009,PES
glycol,60,0.00000003,PES
glycol,55,0.00000001,PES
glycol,50,0,PES
glycol,45,0,PES
glycol,40,0,PES
glycol,35,0,PES
glycol,30,0,PES
glycol,25,0,PES
n-heptane,160,0.00036471,PES
n-heptane,155,0.00017349,PES
n-heptane,150,0.00008091,PES
n-heptane,145,0.00003696,PES
n-heptane,140,0.00001652,PES
n-heptane,135,0.00000722,PES
n-heptane,130,0.00000308,PES
n-heptane,125,0.00000129,PES
n-heptane,120,0.00000052,PES
n-heptane,115,0.00000021,PES
n-heptane,110,0.00000008,PES
n-heptane,105,0.00000003,PES
n-heptane,100,0.00000001,PES
n-heptane,95,0,PES
n-heptane,90,0,PES
n-heptane,85,0,PES
n-heptane,80,0,PES
n-heptane,75,0,PES
n-heptane,70,0,PES
n-heptane,65,0,PES
n-heptane,60,0,PES
n-heptane,55,0,PES
n-heptane,50,0,PES
n-heptane,45,0,PES
n-heptane,40,0,PES
n-heptane,35,0,PES
n-heptane,30,0,PES
n-heptane,25,0,PES
hexane,160,0.00056777,PES
hexane,155,0.00027018,PES
hexane,150,0.00012604,PES
hexane,145,0.00005759,PES
hexane,140,0.00002576,PES
hexane,135,0.00001126,PES
hexane,130,0.00000481,PES
hexane,125,0.00000201,PES
hexane,120,0.00000082,PES
hexane,115,0.00000032,PES
hexane,110,0.00000012,PES
hexane,105,0.00000005,PES
hexane,100,0.00000002,PES
hexane,95,0.00000001,PES
hexane,90,0,PES
hexane,85,0,PES
hexane,80,0,PES
hexane,75,0,PES
hexane,70,0,PES
hexane,65,0,PES
hexane,60,0,PES
hexane,55,0,PES
hexane,50,0,PES
hexane,45,0,PES
hexane,40,0,PES
hexane,35,0,PES
hexane,30,0,PES
hexane,25,0,PES
isopropylamine,160,41.32421216,PES
isopropylamine,155,36.75813865,PES
isopropylamine,150,32.2661266,PES
isopropylamine,145,27.88349073,PES
isopropylamine,140,23.65719535,PES
isopropylamine,135,19.64011427,PES
isopropylamine,130,15.89532734,PES
isopropylamine,125,12.48921625,PES
isopropylamine,120,9.48910312,PES
isopropylamine,115,6.94808713,PES
isopropylamine,110,4.89375743,PES
isopropylamine,105,3.3164763,PES
isopropylamine,100,2.16799034,PES
isopropylamine,95,1.37271066,PES
isopropylamine,90,0.84582492,PES
isopropylamine,85,0.50934627,PES
isopropylamine,80,0.30075073,PES
isopropylamine,75,0.17450816,PES
isopropylamine,70,0.09962702,PES
isopropylamine,65,0.05598913,PES
isopropylamine,60,0.03097224,PES
isopropylamine,55,0.01685755,PES
isopropylamine,50,0.00902115,PES
isopropylamine,45,0.00474222,PES
isopropylamine,40,0.00244623,PES
isopropylamine,35,0.00123679,PES
isopropylamine,30,0.00061211,PES
isopropylamine,25,0.00029613,PES
methanol,160,26.44556839,PES
methanol,155,18.52974203,PES
methanol,150,11.90549489,PES
methanol,145,6.9815303,PES
methanol,140,3.7669628,PES
methanol,135,1.90301021,PES
methanol,130,0.91658106,PES
methanol,125,0.42647387,PES
methanol,120,0.19316308,PES
methanol,115,0.08549146,PES
methanol,110,0.03703425,PES
methanol,105,0.01571085,PES
methanol,100,0.00652695,PES
methanol,95,0.00265474,PES
methanol,90,0.00105673,PES
methanol,85,0.00041147,PES
methanol,80,0.00015665,PES
methanol,75,0.00005827,PES
methanol,70,0.00002117,PES
methanol,65,0.00000751,PES
methanol,60,0.0000026,PES
methanol,55,0.00000087,PES
methanol,50,0.00000029,PES
methanol,45,0.00000009,PES
methanol,40,0.00000003,PES
methanol,35,0.00000001,PES
methanol,30,0,PES
methanol,25,0,PES
methylacetate,160,25.09241841,PES
methylacetate,155,19.84824584,PES
methylacetate,150,15.09713326,PES
methylacetate,145,10.97502917,PES
methylacetate,140,7.5871868,PES
methylacetate,135,4.97795841,PES
methylacetate,130,3.10589999,PES
methylacetate,125,1.85321854,PES
methylacetate,120,1.06529322,PES
methylacetate,115,0.59409257,PES
methylacetate,110,0.32317021,PES
methylacetate,105,0.17208966,PES
methylacetate,100,0.0898917,PES
methylacetate,95,0.04610539,PES
methylacetate,90,0.0232258,PES
methylacetate,85,0.01148956,PES
methylacetate,80,0.005579,PES
methylacetate,75,0.00265742,PES
methylacetate,70,0.00124077,PES
methylacetate,65,0.00056741,PES
methylacetate,60,0.0002539,PES
methylacetate,55,0.00011107,PES
methylacetate,50,0.00004745,PES
methylacetate,45,0.00001977,PES
methylacetate,40,0.00000803,PES
methylacetate,35,0.00000317,PES
methylacetate,30,0.00000122,PES
methylacetate,25,0.00000045,PES
butanone,160,23.82518375,PES
butanone,155,18.57823192,PES
butanone,150,13.9149749,PES
butanone,145,9.96211893,PES
butanone,140,6.79796819,PES
butanone,135,4.42271617,PES
butanone,130,2.75361871,PES
butanone,125,1.65062478,PES
butanone,120,0.95893157,PES
butanone,115,0.54300899,PES
butanone,110,0.30097644,PES
butanone,105,0.1637354,PES
butanone,100,0.08755991,PES
butanone,95,0.04606059,PES
butanone,90,0.02383894,PES
butanone,85,0.0121366,PES
butanone,80,0.00607549,PES
butanone,75,0.0029888,PES
butanone,70,0.00144395,PES
butanone,65,0.00068458,PES
butanone,60,0.00031824,PES
butanone,55,0.00014494,PES
butanone,50,0.0000646,PES
butanone,45,0.00002816,PES
butanone,40,0.00001199,PES
butanone,35,0.00000498,PES
butanone,30,0.00000201,PES
butanone,25,0.00000079,PES
ch2cl2,160,18.91929741,PES
ch2cl2,155,14.11659912,PES
ch2cl2,150,10.01949909,PES
ch2cl2,145,6.7293377,PES
ch2cl2,140,4.27202757,PES
ch2cl2,135,2.57375446,PES
ch2cl2,130,1.48294029,PES
ch2cl2,125,0.82418253,PES
ch2cl2,120,0.44501301,PES
ch2cl2,115,0.23458779,PES
ch2cl2,110,0.12108198,PES
ch2cl2,105,0.06128031,PES
ch2cl2,100,0.03042627,PES
ch2cl2,95,0.01481954,PES
ch2cl2,90,0.00707789,PES
ch2cl2,85,0.00331279,PES
ch2cl2,80,0.0015184,PES
ch2cl2,75,0.00068096,PES
ch2cl2,70,0.00029855,PES
ch2cl2,65,0.00012784,PES
ch2cl2,60,0.00005341,PES
ch2cl2,55,0.00002175,PES
ch2cl2,50,0.00000862,PES
ch2cl2,45,0.00000332,PES
ch2cl2,40,0.00000124,PES
ch2cl2,35,0.00000045,PES
ch2cl2,30,0.00000016,PES
ch2cl2,25,0.00000005,PES
propyleneglycol,160,1.40620834,PES
propyleneglycol,155,0.73743836,PES
propyleneglycol,150,0.37984464,PES
propyleneglycol,145,0.19226441,PES
propyleneglycol,140,0.09562785,PES
propyleneglycol,135,0.04672281,PES
propyleneglycol,130,0.02241525,PES
propyleneglycol,125,0.01055388,PES
propyleneglycol,120,0.00487421,PES
propyleneglycol,115,0.0022069,PES
propyleneglycol,110,0.00097904,PES
propyleneglycol,105,0.00042531,PES
propyleneglycol,100,0.00018082,PES
propyleneglycol,95,0.00007519,PES
propyleneglycol,90,0.00003056,PES
propyleneglycol,85,0.00001213,PES
propyleneglycol,80,0.0000047,PES
propyleneglycol,75,0.00000178,PES
propyleneglycol,70,0.00000065,PES
propyleneglycol,65,0.00000023,PES
propyleneglycol,60,0.00000008,PES
propyleneglycol,55,0.00000003,PES
propyleneglycol,50,0.00000001,PES
propyleneglycol,45,0,PES
propyleneglycol,40,0,PES
propyleneglycol,35,0,PES
propyleneglycol,30,0,PES
propyleneglycol,25,0,PES
tert-butanol,160,2.50383009,PES
tert-butanol,155,1.36840485,PES
tert-butanol,150,0.73291122,PES
tert-butanol,145,0.38530194,PES
tert-butanol,140,0.19893416,PES
tert-butanol,135,0.10087314,PES
tert-butanol,130,0.05021873,PES
tert-butanol,125,0.02453432,PES
tert-butanol,120,0.01175588,PES
tert-butanol,115,0.0055213,PES
tert-butanol,110,0.00254009,PES
tert-butanol,105,0.0011439,PES
tert-butanol,100,0.0005039,PES
tert-butanol,95,0.00021698,PES
tert-butanol,90,0.00009126,PES
tert-butanol,85,0.00003746,PES
tert-butanol,80,0.000015,PES
tert-butanol,75,0.00000585,PES
tert-butanol,70,0.00000222,PES
tert-butanol,65,0.00000082,PES
tert-butanol,60,0.00000029,PES
tert-butanol,55,0.0000001,PES
tert-butanol,50,0.00000003,PES
tert-butanol,45,0.00000001,PES
tert-butanol,40,0,PES
tert-butanol,35,0,PES
tert-butanol,30,0,PES
tert-butanol,25,0,PES
thf,160,22.30724343,PES
thf,155,17.53564181,PES
thf,150,13.33746929,PES
thf,145,9.77747756,PES
thf,140,6.88969823,PES
thf,135,4.66322324,PES
thf,130,3.03712809,PES
thf,125,1.91098536,PES
thf,120,1.16764391,PES
thf,115,0.69637919,PES
thf,110,0.40712001,PES
thf,105,0.23404695,PES
thf,100,0.13258225,PES
thf,95,0.07409711,PES
thf,90,0.04088071,PES
thf,85,0.02227023,PES
thf,80,0.01197811,PES
thf,75,0.00635913,PES
thf,70,0.0033311,PES
thf,65,0.0017209,PES
thf,60,0.00087633,PES
thf,55,0.00043962,PES
thf,50,0.00021713,PES
thf,45,0.00010551,PES
thf,40,0.00005041,PES
thf,35,0.00002366,PES
thf,30,0.0000109,PES
thf,25,0.00000493,PES
thp,160,5.14198569,PES
thp,155,3.23432767,PES
thp,150,1.98479623,PES
thp,145,1.1932052,PES
thp,140,0.70500994,PES
thp,135,0.41036056,PES
thp,130,0.23566022,PES
thp,125,0.13364366,PES
thp,120,0.0748773,PES
thp,115,0.0414531,PES
thp,110,0.02267481,PES
thp,105,0.01225244,PES
thp,100,0.00653827,PES
thp,95,0.00344431,PES
thp,90,0.0017904,PES
thp,85,0.00091791,PES
thp,80,0.00046389,PES
thp,75,0.00023097,PES
thp,70,0.00011323,PES
thp,65,0.00005462,PES
thp,60,0.00002591,PES
thp,55,0.00001207,PES
thp,50,0.00000553,PES
thp,45,0.00000248,PES
thp,40,0.00000109,PES
thp,35,0.00000047,PES
thp,30,0.0000002,PES
thp,25,0.00000008,PES
toluene,160,0.54741211,PES
toluene,155,0.29429007,PES
toluene,150,0.15597172,PES
toluene,145,0.08138697,PES
toluene,140,0.04176638,PES
toluene,135,0.02105915,PES
toluene,130,0.01042329,PES
toluene,125,0.00505984,PES
toluene,120,0.00240688,PES
toluene,115,0.0011209,PES
toluene,110,0.00051059,PES
toluene,105,0.00022727,PES
toluene,100,0.00009875,PES
toluene,95,0.00004184,PES
toluene,90,0.00001727,PES
toluene,85,0.00000693,PES
toluene,80,0.00000271,PES
toluene,75,0.00000102,PES
toluene,70,0.00000038,PES
toluene,65,0.00000013,PES
toluene,60,0.00000005,PES
toluene,55,0.00000002,PES
toluene,50,0,PES
toluene,45,0,PES
toluene,40,0,PES
toluene,35,0,PES
toluene,30,0,PES
toluene,25,0,PES
triethylamine,160,0.31371602,PES
triethylamine,155,0.20324736,PES
triethylamine,150,0.13142172,PES
triethylamine,145,0.08481795,PES
triethylamine,140,0.05464154,PES
triethylamine,135,0.03514113,PES
triethylamine,130,0.0225639,PES
triethylamine,125,0.01446672,PES
triethylamine,120,0.00926277,PES
triethylamine,115,0.00592365,PES
triethylamine,110,0.0037843,PES
triethylamine,105,0.00241552,PES
triethylamine,100,0.00154082,PES
triethylamine,95,0.00098245,PES
triethylamine,90,0.00062633,PES
triethylamine,85,0.00039935,PES
triethylamine,80,0.00025475,PES
triethylamine,75,0.00016265,PES
triethylamine,70,0.00010398,PES
triethylamine,65,0.00006659,PES
triethylamine,60,0.00004274,PES
triethylamine,55,0.00002752,PES
triethylamine,50,0.00001778,PES
triethylamine,45,0.00001154,PES
triethylamine,40,0.00000753,PES
triethylamine,35,0.00000495,PES
triethylamine,30,0.00000327,PES
triethylamine,25,0.00000219,PES
h2o,160,0.00000016,PES
h2o,155,0.00000006,PES
h2o,150,0.00000002,PES
h2o,145,0.00000001,PES
h2o,140,0,PES
h2o,135,0,PES
h2o,130,0,PES
h2o,125,0,PES
h2o,120,0,PES
h2o,115,0,PES
h2o,110,0,PES
h2o,105,0,PES
h2o,100,0,PES
h2o,95,0,PES
h2o,90,0,PES
h2o,85,0,PES
h2o,80,0,PES
h2o,75,0,PES
h2o,70,0,PES
h2o,65,0,PES
h2o,60,0,PES
h2o,55,0,PES
h2o,50,0,PES
h2o,45,0,PES
h2o,40,0,PES
h2o,35,0,PES
h2o,30,0,PES
h2o,25,0,PES
"1,4-dimethylbenzene",160,0.16815555,PES
"1,4-dimethylbenzene",155,0.08946337,PES
"1,4-dimethylbenzene",150,0.04687415,PES
"1,4-dimethylbenzene",145,0.02416036,PES
"1,4-dimethylbenzene",140,0.01223895,PES
"1,4-dimethylbenzene",135,0.00608802,PES
"1,4-dimethylbenzene",130,0.00297118,PES
"1,4-dimethylbenzene",125,0.00142146,PES
"1,4-dimethylbenzene",120,0.00066606,PES
"1,4-dimethylbenzene",115,0.0003054,PES
"1,4-dimethylbenzene",110,0.0001369,PES
"1,4-dimethylbenzene",105,0.00005993,PES
"1,4-dimethylbenzene",100,0.0000256,PES
"1,4-dimethylbenzene",95,0.00001066,PES
"1,4-dimethylbenzene",90,0.00000432,PES
"1,4-dimethylbenzene",85,0.0000017,PES
"1,4-dimethylbenzene",80,0.00000065,PES
"1,4-dimethylbenzene",75,0.00000024,PES
"1,4-dimethylbenzene",70,0.00000009,PES
"1,4-dimethylbenzene",65,0.00000003,PES
"1,4-dimethylbenzene",60,0.00000001,PES
"1,4-dimethylbenzene",55,0,PES
"1,4-dimethylbenzene",50,0,PES
"1,4-dimethylbenzene",45,0,PES
"1,4-dimethylbenzene",40,0,PES
"1,4-dimethylbenzene",35,0,PES
"1,4-dimethylbenzene",30,0,PES
"1,4-dimethylbenzene",25,0,PES
"1,2-dimethylbenzene",160,0.21882628,PES
"1,2-dimethylbenzene",155,0.11695424,PES
"1,2-dimethylbenzene",150,0.06157661,PES
"1,2-dimethylbenzene",145,0.031901,PES
"1,2-dimethylbenzene",140,0.01624642,PES
"1,2-dimethylbenzene",135,0.00812622,PES
"1,2-dimethylbenzene",130,0.00398864,PES
"1,2-dimethylbenzene",125,0.00191953,PES
"1,2-dimethylbenzene",120,0.00090495,PES
"1,2-dimethylbenzene",115,0.00041756,PES
"1,2-dimethylbenzene",110,0.0001884,PES
"1,2-dimethylbenzene",105,0.00008304,PES
"1,2-dimethylbenzene",100,0.00003572,PES
"1,2-dimethylbenzene",95,0.00001497,PES