Solvent,Temperature (°C),Solubility (%),Polymer
chcl3,80,7.87043184,PVC
chcl3,75,6.78973698,PVC
chcl3,70,5.82141019,PVC
chcl3,65,4.9598722,PVC
chcl3,60,4.19879778,PVC
chcl3,55,3.53129949,PVC
chcl3,50,2.9501121,PVC
chcl3,45,2.44777748,PVC
chcl3,40,2.01680088,PVC
chcl3,35,1.64980627,PVC
chcl3,30,1.3396591,PVC
chcl3,25,1.07956775,PVC
cyclohexane,160,23.04856665,PVC
cyclohexane,155,19.66384005,PVC
cyclohexane,150,16.70938505,PVC
cyclohexane,145,14.15015435,PVC
cyclohexane,140,11.94509696,PVC
cyclohexane,135,10.05289486,PVC
cyclohexane,130,8.43428358,PVC
cyclohexane,125,7.05360833,PVC
cyclohexane,120,5.8789617,PVC
cyclohexane,115,4.88224775,PVC
cyclohexane,110,4.03888565,PVC
cyclohexane,105,3.32741305,PVC
cyclohexane,100,2.72916117,PVC
cyclohexane,95,2.22791199,PVC
cyclohexane,90,1.80956594,PVC
cyclohexane,85,1.46189031,PVC
cyclohexane,80,1.17427521,PVC
cyclohexane,75,0.93752817,PVC
cyclohexane,70,0.74369882,PVC
cyclohexane,65,0.58592166,PVC
cyclohexane,60,0.45828547,PVC
cyclohexane,55,0.35571573,PVC
cyclohexane,50,0.27387226,PVC
cyclohexane,45,0.20905903,PVC
cyclohexane,40,0.15814414,PVC
cyclohexane,35,0.11848851,PVC
cyclohexane,30,0.08788227,PVC
cyclohexane,25,0.06448772,PVC
cyclohexanol,160,29.9494474,PVC
cyclohexanol,155,26.33951269,PVC
cyclohexanol,150,22.9692856,PVC
cyclohexanol,145,19.86802828,PVC
cyclohexanol,140,17.0527052,PVC
cyclohexanol,135,14.52873902,PVC
cyclohexanol,130,12.29183754,PVC
cyclohexanol,125,10.32995382,PVC
cyclohexanol,120,8.62564985,PVC
cyclohexanol,115,7.15804724,PVC
cyclohexanol,110,5.90448905,PVC
cyclohexanol,105,4.84185919,PVC
cyclohexanol,100,3.9474958,PVC
cyclohexanol,95,3.19987652,PVC
cyclohexanol,90,2.57902238,PVC
cyclohexanol,85,2.06672724,PVC
cyclohexanol,80,1.64665683,PVC
cyclohexanol,75,1.30433756,PVC
cyclohexanol,70,1.02709478,PVC
cyclohexanol,65,0.80393898,PVC
cyclohexanol,60,0.62542945,PVC
cyclohexanol,55,0.48352541,PVC
cyclohexanol,50,0.37143401,PVC
cyclohexanol,45,0.28346121,PVC
cyclohexanol,40,0.21487009,PVC
cyclohexanol,35,0.16174911,PVC
cyclohexanol,30,0.12089178,PVC
cyclohexanol,25,0.08968877,PVC
"2,3-dihydropyran",160,49.77398008,PVC
"2,3-dihydropyran",155,47.00914084,PVC
"2,3-dihydropyran",150,44.24650906,PVC
"2,3-dihydropyran",145,41.49657199,PVC
"2,3-dihydropyran",140,38.77038885,PVC
"2,3-dihydropyran",135,36.07945666,PVC
"2,3-dihydropyran",130,33.43561462,PVC
"2,3-dihydropyran",125,30.85055097,PVC
"2,3-dihydropyran",120,28.33607365,PVC
"2,3-dihydropyran",115,25.90351492,PVC
"2,3-dihydropyran",110,23.56358203,PVC
"2,3-dihydropyran",105,21.32610872,PVC
"2,3-dihydropyran",100,19.19978683,PVC
"2,3-dihydropyran",95,17.19208827,PVC
"2,3-dihydropyran",90,15.3088538,PVC
"2,3-dihydropyran",85,13.55433642,PVC
"2,3-dihydropyran",80,11.93106734,PVC
"2,3-dihydropyran",75,10.43983386,PVC
"2,3-dihydropyran",70,9.0797249,PVC
"2,3-dihydropyran",65,7.84819061,PVC
"2,3-dihydropyran",60,6.74124837,PVC
"2,3-dihydropyran",55,5.75362105,PVC
"2,3-dihydropyran",50,4.87896813,PVC
"2,3-dihydropyran",45,4.11011836,PVC
"2,3-dihydropyran",40,3.4393049,PVC
"2,3-dihydropyran",35,2.85840514,PVC
"2,3-dihydropyran",30,2.35913891,PVC
"2,3-dihydropyran",25,1.93327264,PVC
dimethylformamide,160,58.52885569,PVC
dimethylformamide,155,56.40387186,PVC
dimethylformamide,150,54.28504009,PVC
dimethylformamide,145,52.17608792,PVC
dimethylformamide,140,50.08130987,PVC
dimethylformamide,135,48.00407415,PVC
dimethylformamide,130,45.94826452,PVC
dimethylformamide,125,43.91644586,PVC
dimethylformamide,120,41.91209114,PVC
dimethylformamide,115,39.93782282,PVC
dimethylformamide,110,37.99716713,PVC
dimethylformamide,105,36.09246923,PVC
dimethylformamide,100,34.22623496,PVC
dimethylformamide,95,32.40080931,PVC
dimethylformamide,90,30.61837831,PVC
dimethylformamide,85,28.88123284,PVC
dimethylformamide,80,27.19067073,PVC
dimethylformamide,75,25.54873186,PVC
dimethylformamide,70,23.95676988,PVC
dimethylformamide,65,22.4167166,PVC
dimethylformamide,60,20.92954048,PVC
dimethylformamide,55,19.4964971,PVC
dimethylformamide,50,18.11823702,PVC
dimethylformamide,45,16.7956738,PVC
dimethylformamide,40,15.52972648,PVC
dimethylformamide,35,14.32080672,PVC
dimethylformamide,30,13.16905987,PVC
dimethylformamide,25,12.07473902,PVC
dimethylsulfoxide,160,50.16876859,PVC
dimethylsulfoxide,155,47.83237504,PVC
dimethylsulfoxide,150,45.55571984,PVC
dimethylsulfoxide,145,43.34171508,PVC
dimethylsulfoxide,140,41.19137322,PVC
dimethylsulfoxide,135,39.10609585,PVC
dimethylsulfoxide,130,37.0858141,PVC
dimethylsulfoxide,125,35.13028732,PVC
dimethylsulfoxide,120,33.23951956,PVC
dimethylsulfoxide,115,31.41265063,PVC
dimethylsulfoxide,110,29.6491505,PVC
dimethylsulfoxide,105,27.94751382,PVC
dimethylsulfoxide,100,26.30697238,PVC
dimethylsulfoxide,95,24.72648846,PVC
dimethylsulfoxide,90,23.20502638,PVC
dimethylsulfoxide,85,21.74157218,PVC
dimethylsulfoxide,80,20.33514726,PVC
dimethylsulfoxide,75,18.98481716,PVC
dimethylsulfoxide,70,17.68969653,PVC
dimethylsulfoxide,65,16.44881704,PVC
dimethylsulfoxide,60,15.2617061,PVC
dimethylsulfoxide,55,14.12744075,PVC
dimethylsulfoxide,50,13.04541312,PVC
dimethylsulfoxide,45,12.01476766,PVC
dimethylsulfoxide,40,11.03493948,PVC
dimethylsulfoxide,35,10.10549068,PVC
dimethylsulfoxide,30,9.22575851,PVC
dimethylsulfoxide,25,8.39491082,PVC
diphenylether,160,23.3842266,PVC
diphenylether,155,20.97431804,PVC
diphenylether,150,18.74038984,PVC
diphenylether,145,16.68046687,PVC
diphenylether,140,14.79055209,PVC
diphenylether,135,13.06506163,PVC
diphenylether,130,11.49703161,PVC
diphenylether,125,10.07854817,PVC
diphenylether,120,8.80101,PVC
diphenylether,115,7.65538518,PVC
diphenylether,110,6.63242992,PVC
diphenylether,105,5.72287031,PVC
diphenylether,100,4.91754962,PVC
diphenylether,95,4.20754285,PVC
diphenylether,90,3.58425518,PVC
diphenylether,85,3.039473,PVC
diphenylether,80,2.56542314,PVC
diphenylether,75,2.15480006,PVC
diphenylether,70,1.80078379,PVC
diphenylether,65,1.49704719,PVC
diphenylether,60,1.2377547,PVC
diphenylether,55,1.01755436,PVC
diphenylether,50,0.8315646,PVC
diphenylether,45,0.67535698,PVC
diphenylether,40,0.54493581,PVC
diphenylether,35,0.43671583,PVC
diphenylether,30,0.34749771,PVC
diphenylether,25,0.27444322,PVC
dodecane,160,7.40183282,PVC
dodecane,155,6.34737413,PVC
dodecane,150,5.43033986,PVC
dodecane,145,4.63374458,PVC
dodecane,140,3.94277628,PVC
dodecane,135,3.34450729,PVC
dodecane,130,2.8275925,PVC
dodecane,125,2.38205505,PVC
dodecane,120,1.99907818,PVC
dodecane,115,1.67086968,PVC
dodecane,110,1.390528,PVC
dodecane,105,1.15193515,PVC
dodecane,100,0.94966582,PVC
dodecane,95,0.77891169,PVC
dodecane,90,0.63541212,PVC
dodecane,85,0.51539874,PVC
dodecane,80,0.4155442,PVC
dodecane,75,0.33291755,PVC
dodecane,70,0.26494446,PVC
dodecane,65,0.20937158,PVC
dodecane,60,0.1642342,PVC
dodecane,55,0.12782689,PVC
dodecane,50,0.09867658,PVC
dodecane,45,0.07551783,PVC
dodecane,40,0.05727006,PVC
dodecane,35,0.04301653,PVC
dodecane,30,0.03198502,PVC
dodecane,25,0.02352991,PVC
ethanol,160,49.02431339,PVC
ethanol,155,44.44566466,PVC
ethanol,150,39.85829848,PVC
ethanol,145,35.35084366,PVC
ethanol,140,31.00853461,PVC
ethanol,135,26.90629724,PVC
ethanol,130,23.1031749,PVC
ethanol,125,19.63978978,PVC
ethanol,120,16.53794676,PVC
ethanol,115,13.8022787,PVC
ethanol,110,11.42327074,PVC
ethanol,105,9.38065845,PVC
ethanol,100,7.64705837,PVC
ethanol,95,6.19107027,PVC
ethanol,90,4.9798262,PVC
ethanol,85,3.98089703,PVC
ethanol,80,3.16361178,PVC
ethanol,75,2.49985091,PVC
ethanol,70,1.96447277,PVC
ethanol,65,1.53543656,PVC
ethanol,60,1.19373308,PVC
ethanol,55,0.92319161,PVC
ethanol,50,0.71021721,PVC
ethanol,45,0.54349748,PVC
ethanol,40,0.41370533,PVC
ethanol,35,0.31321348,PVC
ethanol,30,0.23583218,PVC
ethanol,25,0.17657357,PVC
ethylacetate,160,52.38971301,PVC
ethylacetate,155,49.97265152,PVC
ethylacetate,150,47.56157291,PVC
ethylacetate,145,45.16177076,PVC
ethylacetate,140,42.77871122,PVC
ethylacetate,135,40.41801131,PVC
ethylacetate,130,38.08541247,PVC
ethylacetate,125,35.78674907,PVC
ethylacetate,120,33.52791124,PVC
ethylacetate,115,31.31480173,PVC
ethylacetate,110,29.15328651,PVC
ethylacetate,105,27.04913914,PVC
ethylacetate,100,25.0079194,PVC
ethylacetate,95,23.0351681,PVC
ethylacetate,90,21.13590028,PVC
ethylacetate,85,19.31485576,PVC
ethylacetate,80,17.5763824,PVC
ethylacetate,75,15.92412417,PVC
ethylacetate,70,14.36134922,PVC
ethylacetate,65,12.89053627,PVC
ethylacetate,60,11.51356273,PVC
ethylacetate,55,10.23139308,PVC
ethylacetate,50,9.04427631,PVC
ethylacetate,45,7.95156613,PVC
ethylacetate,40,6.95189828,PVC
ethylacetate,35,6.04307858,PVC
ethylacetate,30,5.22216734,PVC
ethylacetate,25,4.48557802,PVC
glycol,160,8.18821675,PVC
glycol,155,6.73703839,PVC
glycol,150,5.52924687,PVC
glycol,145,4.52531439,PVC
glycol,140,3.69235596,PVC
glycol,135,3.00285829,PVC
glycol,130,2.43367801,PVC
glycol,125,1.96526073,PVC
glycol,120,1.5810674,PVC
glycol,115,1.26709323,PVC
glycol,110,1.01148756,PVC
glycol,105,0.80422991,PVC
glycol,100,0.63686993,PVC
glycol,95,0.50230011,PVC
glycol,90,0.3945629,PVC
glycol,85,0.30868436,PVC
glycol,80,0.24052985,PVC
glycol,75,0.18667857,PVC
glycol,70,0.14431449,PVC
glycol,65,0.1111313,PVC
glycol,60,0.08525031,PVC
glycol,55,0.06514943,PVC
glycol,50,0.04960217,PVC
glycol,45,0.03762558,PVC
glycol,40,0.02843616,PVC
glycol,35,0.02141266,PVC
glycol,30,0.01606502,PVC
glycol,25,0.01200863,PVC
n-heptane,160,14.96137596,PVC
n-heptane,155,12.79182453,PVC
n-heptane,150,10.910548,PVC
n-heptane,145,9.28216518,PVC
n-heptane,140,7.87528608,PVC
n-heptane,135,6.66205447,PVC
n-heptane,130,5.61797085,PVC
n-heptane,125,4.72151623,PVC
n-heptane,120,3.95374251,PVC
n-heptane,115,3.29800313,PVC
n-heptane,110,2.73967413,PVC
n-heptane,105,2.26586909,PVC
n-heptane,100,1.8652584,PVC
n-heptane,95,1.52787383,PVC
n-heptane,90,1.24494955,PVC
n-heptane,85,1.00878398,PVC
n-heptane,80,0.81262164,PVC
n-heptane,75,0.65054511,PVC
n-heptane,70,0.51738551,PVC
n-heptane,65,0.40864004,PVC
n-heptane,60,0.32039945,PVC
n-heptane,55,0.2492831,PVC
n-heptane,50,0.19238052,PVC
n-heptane,45,0.14719854,PVC
n-heptane,40,0.11161339,PVC
n-heptane,35,0.08382693,PVC
n-heptane,30,0.06232705,PVC
n-heptane,25,0.04585134,PVC
hexane,160,18.77139022,PVC
hexane,155,16.05743811,PVC
hexane,150,13.69628211,PVC
hexane,145,11.64900649,PVC
hexane,140,9.87875577,PVC
hexane,135,8.35201406,PVC
hexane,130,7.03851753,PVC
hexane,125,5.91135208,PVC
hexane,120,4.94670084,PVC
hexane,115,4.12349098,PVC
hexane,110,3.42315878,PVC
hexane,105,2.82937459,PVC
hexane,100,2.32774897,PVC
hexane,95,1.90564159,PVC
hexane,90,1.55194947,PVC
hexane,85,1.25693174,PVC
hexane,80,1.01205514,PVC
hexane,75,0.8098602,PVC
hexane,70,0.64383879,PVC
hexane,65,0.50833077,PVC
hexane,60,0.39842915,PVC
hexane,55,0.3098961,PVC
hexane,50,0.23908768,PVC
hexane,45,0.18288586,PVC
hexane,40,0.13863721,PVC
hexane,35,0.10409728,PVC
hexane,30,0.07738002,PVC
hexane,25,0.05691201,PVC
isopropylamine,160,61.71327131,PVC
isopropylamine,155,59.30804187,PVC
isopropylamine,150,56.8479617,PVC
isopropylamine,145,54.33630424,PVC
isopropylamine,140,51.77714664,PVC
isopropylamine,135,49.17548047,PVC
isopropylamine,130,46.5373257,PVC
isopropylamine,125,43.86984267,PVC
isopropylamine,120,41.18143482,PVC
isopropylamine,115,38.48183232,PVC
isopropylamine,110,35.78208048,PVC
isopropylamine,105,33.09483264,PVC
isopropylamine,100,30.43381237,PVC
isopropylamine,95,27.81412236,PVC
isopropylamine,90,25.25157975,PVC
isopropylamine,85,22.7628836,PVC
isopropylamine,80,20.36504036,PVC
isopropylamine,75,18.07439378,PVC
isopropylamine,70,15.90648993,PVC
isopropylamine,65,13.87512718,PVC
isopropylamine,60,11.99194018,PVC
isopropylamine,55,10.26561498,PVC
isopropylamine,50,8.7015711,PVC
isopropylamine,45,7.3016191,PVC
isopropylamine,40,6.06402563,PVC
isopropylamine,35,4.98366907,PVC
isopropylamine,30,4.05250317,PVC
isopropylamine,25,3.26008851,PVC
methanol,160,42.71554171,PVC
methanol,155,37.3632225,PVC
methanol,150,32.32242569,PVC
methanol,145,27.67109394,PVC
methanol,140,23.45717116,PVC
methanol,135,19.70214474,PVC
methanol,130,16.40609081,PVC
methanol,125,13.55218889,PVC
methanol,120,11.11164226,PVC
methanol,115,9.04798668,PVC
methanol,110,7.32067645,PVC
methanol,105,5.88813192,PVC
methanol,100,4.70988898,PVC
methanol,95,3.74807519,PVC
methanol,90,2.96829937,PVC
methanol,85,2.3400518,PVC
methanol,80,1.83679393,PVC
methanol,75,1.43580297,PVC
methanol,70,1.11788185,PVC
methanol,65,0.8669959,PVC
methanol,60,0.66988302,PVC
methanol,55,0.51566825,PVC
methanol,50,0.39550209,PVC
methanol,45,0.30223196,PVC
methanol,40,0.23011277,PVC
methanol,35,0.17455589,PVC
methanol,30,0.13191549,PVC
methanol,25,0.0993088,PVC
methylacetate,160,56.55131548,PVC
methylacetate,155,54.16031179,PVC
methylacetate,150,51.75724393,PVC
methylacetate,145,49.3474939,PVC
methylacetate,140,46.9365028,PVC
methylacetate,135,44.5309686,PVC
methylacetate,130,42.13638476,PVC
methylacetate,125,39.75944403,PVC
methylacetate,120,37.40678227,PVC
methylacetate,115,35.08481661,PVC
methylacetate,110,32.8012176,PVC
methylacetate,105,30.56242987,PVC
methylacetate,100,28.37531161,PVC
methylacetate,95,26.24661416,PVC
methylacetate,90,24.18290177,PVC
methylacetate,85,22.19041521,PVC
methylacetate,80,20.27520216,PVC
methylacetate,75,18.44264755,PVC
methylacetate,70,16.6977251,PVC
methylacetate,65,15.04454716,PVC
methylacetate,60,13.48674156,PVC
methylacetate,55,12.02697259,PVC
methylacetate,50,10.66713301,PVC
methylacetate,45,9.40803797,PVC
methylacetate,40,8.2496159,PVC
methylacetate,35,7.19075877,PVC
methylacetate,30,6.22948188,PVC
methylacetate,25,5.3628509,PVC
butanone,160,58.00792831,PVC
butanone,155,55.70135212,PVC
butanone,150,53.38065092,PVC
butanone,145,51.05035085,PVC
butanone,140,48.71524261,PVC
butanone,135,46.38037341,PVC
butanone,130,44.05103519,PVC
butanone,125,41.73274865,PVC
butanone,120,39.43124244,PVC
butanone,115,37.15242706,PVC
butanone,110,34.9023626,PVC
butanone,105,32.68722001,PVC
butanone,100,30.51337956,PVC
butanone,95,28.38646769,PVC
butanone,90,26.3135527,PVC
butanone,85,24.30030735,PVC
butanone,80,22.35262357,PVC
butanone,75,20.4761213,PVC
butanone,70,18.67603162,PVC
butanone,65,16.95724658,PVC
butanone,60,15.32405163,PVC
butanone,55,13.77995288,PVC
butanone,50,12.328009,PVC
butanone,45,10.9703561,PVC
butanone,40,9.70839724,PVC
butanone,35,8.54252921,PVC
butanone,30,7.47231891,PVC
butanone,25,6.49637886,PVC
ch2cl2,160,52.58000468,PVC
ch2cl2,155,50.05618307,PVC
ch2cl2,150,47.52540827,PVC
ch2cl2,145,44.99349777,PVC
ch2cl2,140,42.46671582,PVC
ch2cl2,135,39.95177772,PVC
ch2cl2,130,37.45584585,PVC
ch2cl2,125,34.98651455,PVC
ch2cl2,120,32.55178089,PVC
ch2cl2,115,30.15992602,PVC
ch2cl2,110,27.8197647,PVC
ch2cl2,105,25.54002674,PVC
ch2cl2,100,23.3297393,PVC
ch2cl2,95,21.19750048,PVC
ch2cl2,90,19.15210799,PVC
ch2cl2,85,17.20167826,PVC
ch2cl2,80,15.35388004,PVC
ch2cl2,75,13.61524442,PVC
ch2cl2,70,11.99133019,PVC
ch2cl2,65,10.48626262,PVC
ch2cl2,60,9.10277843,PVC
ch2cl2,55,7.84189598,PVC
ch2cl2,50,6.70297487,PVC
ch2cl2,45,5.68361117,PVC
ch2cl2,40,4.77981941,PVC
ch2cl2,35,3.98616639,PVC
ch2cl2,30,3.29598405,PVC
ch2cl2,25,2.70166735,PVC
propyleneglycol,160,17.06587104,PVC
propyleneglycol,155,14.35441015,PVC
propyleneglycol,150,12.02290572,PVC
propyleneglycol,145,10.02914231,PVC
propyleneglycol,140,8.33254448,PVC
propyleneglycol,135,6.89548731,PVC
propyleneglycol,130,5.68358465,PVC
propyleneglycol,125,4.66594208,PVC
propyleneglycol,120,3.81504533,PVC
propyleneglycol,115,3.10659764,PVC
propyleneglycol,110,2.51926649,PVC
propyleneglycol,105,2.03444656,PVC
propyleneglycol,100,1.63599198,PVC
propyleneglycol,95,1.30996743,PVC
propyleneglycol,90,1.0443987,PVC
propyleneglycol,85,0.82905384,PVC
propyleneglycol,80,0.65523218,PVC
propyleneglycol,75,0.51557318,PVC
propyleneglycol,70,0.40388262,PVC
propyleneglycol,65,0.31497559,PVC
propyleneglycol,60,0.24453549,PVC
propyleneglycol,55,0.18898827,PVC
propyleneglycol,50,0.14539115,PVC
propyleneglycol,45,0.11133447,PVC
propyleneglycol,40,0.0848562,PVC
propyleneglycol,35,0.06436761,PVC
propyleneglycol,30,0.04858938,PVC
propyleneglycol,25,0.03649701,PVC
tert-butanol,160,41.79466329,PVC
tert-butanol,155,37.84257113,PVC
tert-butanol,150,33.95346477,PVC
tert-butanol,145,30.18310727,PVC
tert-butanol,140,26.58369331,PVC
tert-butanol,135,23.20007889,PVC
tert-butanol,130,20.06702364,PVC
tert-butanol,125,17.20777058,PVC
tert-butanol,120,14.63396548,PVC
tert-butanol,115,12.34665209,PVC
tert-butanol,110,10.33805872,PVC
tert-butanol,105,8.5935427,PVC
tert-butanol,100,7.09374967,PVC
tert-butanol,95,5.81646647,PVC
tert-butanol,90,4.7381948,PVC
tert-butanol,85,3.83538019,PVC
tert-butanol,80,3.08530782,PVC
tert-butanol,75,2.46671283,PVC
tert-butanol,70,1.96013798,PVC
tert-butanol,65,1.54812135,PVC
tert-butanol,60,1.21523716,PVC
tert-butanol,55,0.94804296,PVC
tert-butanol,50,0.73496351,PVC
tert-butanol,45,0.56613674,PVC
tert-butanol,40,0.43324086,PVC
tert-butanol,35,0.32931607,PVC
tert-butanol,30,0.24858967,PVC
tert-butanol,25,0.18631158,PVC
thf,160,58.62230901,PVC
thf,155,56.39380154,PVC
thf,150,54.15728232,PVC
thf,145,51.91685264,PVC
thf,140,49.67739528,PVC
thf,135,47.44296661,PVC
thf,130,45.21864174,PVC
thf,125,43.00930797,PVC
thf,120,40.81991862,PVC
thf,115,38.6554635,PVC
thf,110,36.52093653,PVC
thf,105,34.42130099,PVC
thf,100,32.36145253,PVC
thf,95,30.34593863,PVC
thf,90,28.37994209,PVC
thf,85,26.46761313,PVC
thf,80,24.6131759,PVC
thf,75,22.82073286,PVC
thf,70,21.09358535,PVC
thf,65,19.43509819,PVC
thf,60,17.84853042,PVC
thf,55,16.33614413,PVC
thf,50,14.90005962,PVC
thf,45,13.5415065,PVC
thf,40,12.2619952,PVC
thf,35,11.06184289,PVC
thf,30,9.94103716,PVC
thf,25,8.89913254,PVC
thp,160,50.82991744,PVC
thp,155,48.27002552,PVC
thp,150,45.72339952,PVC
thp,145,43.19775389,PVC
thp,140,40.70086723,PVC
thp,135,38.24049941,PVC
thp,130,35.82430587,PVC
thp,125,33.45975072,PVC
thp,120,31.1540203,PVC
thp,115,28.91393879,PVC
thp,110,26.74588741,PVC
thp,105,24.65583824,PVC
thp,100,22.6488151,PVC
thp,95,20.72958966,PVC
thp,90,18.90208326,PVC
thp,85,17.16947119,PVC
thp,80,15.53415096,PVC
thp,75,13.99768258,PVC
thp,70,12.56095623,PVC
thp,65,11.22390266,PVC
thp,60,9.98573502,PVC
thp,55,8.84493705,PVC
thp,50,7.79920423,PVC
thp,45,6.84567423,PVC
thp,40,5.98085728,PVC
thp,35,5.20074046,PVC
thp,30,4.50092752,PVC
thp,25,3.87662802,PVC
toluene,160,41.69658618,PVC
toluene,155,38.54240135,PVC
toluene,150,35.4476921,PVC
toluene,145,32.43308065,PVC
toluene,140,29.5182475,PVC
toluene,135,26.72126588,PVC
toluene,130,24.05801205,PVC
toluene,125,21.54169508,PVC
toluene,120,19.18253639,PVC
toluene,115,16.9876122,PVC
toluene,110,14.96085563,PVC
toluene,105,13.10320083,PVC
toluene,100,11.41284163,PVC
toluene,95,9.88557248,PVC
toluene,90,8.51517839,PVC
toluene,85,7.29384409,PVC
toluene,80,6.2125572,PVC
toluene,75,5.26148664,PVC
toluene,70,4.43032328,PVC
toluene,65,3.70857558,PVC
toluene,60,3.08581722,PVC
toluene,55,2.55188713,PVC
toluene,50,2.09704481,PVC
toluene,45,1.71208508,PVC
toluene,40,1.38841732,PVC
toluene,35,1.11811522,PVC
toluene,30,0.89393967,PVC
toluene,25,0.70934342,PVC
triethylamine,160,29.97331372,PVC
triethylamine,155,26.97034674,PVC
triethylamine,150,24.17487027,PVC
triethylamine,145,21.58941829,PVC
triethylamine,140,19.21223059,PVC
triethylamine,135,17.0381235,PVC
triethylamine,130,15.05947208,PVC
triethylamine,125,13.26679315,PVC
triethylamine,120,11.6494911,PVC
triethylamine,115,10.1962908,PVC
triethylamine,110,8.89560701,PVC
triethylamine,105,7.73583524,PVC
triethylamine,100,6.70554299,PVC
triethylamine,95,5.79363743,PVC
triethylamine,90,4.98947273,PVC
triethylamine,85,4.2829168,PVC
triethylamine,80,3.66440997,PVC
triethylamine,75,3.124989,PVC
triethylamine,70,2.65630435,PVC
triethylamine,65,2.25062054,PVC
triethylamine,60,1.90081058,PVC
triethylamine,55,1.6003421,PVC
triethylamine,50,1.34325831,PVC
triethylamine,45,1.12415473,PVC
triethylamine,40,0.93815282,PVC
triethylamine,35,0.78087122,PVC
triethylamine,30,0.64839544,PVC
triethylamine,25,0.53724638,PVC
h2o,160,0.00066976,PVC
h2o,155,0.00047473,PVC
h2o,150,0.00033483,PVC
h2o,145,0.00023505,PVC
h2o,140,0.00016425,PVC
h2o,135,0.00011429,PVC
h2o,130,7.92E-05,PVC
h2o,125,5.47E-05,PVC
h2o,120,3.76E-05,PVC
h2o,115,2.58E-05,PVC