Solvent,Temperature (°C),Solubility (%),Polymer
thp,80,0.19865873,Nylon66
thp,75,0.14427402,Nylon66
thp,70,0.1038129,Nylon66
thp,65,0.07398645,Nylon66
thp,60,0.05220717,Nylon66
thp,55,0.03645938,Nylon66
thp,50,0.02518826,Nylon66
thp,45,0.01720637,Nylon66
thp,40,0.01161606,Nylon66
thp,35,0.00774579,Nylon66
thp,30,0.00509859,Nylon66
thp,25,0.00331081,Nylon66
toluene,160,5.66465307,Nylon66
toluene,155,4.4875882,Nylon66
toluene,150,3.5250369,Nylon66
toluene,145,2.74604951,Nylon66
toluene,140,2.12171727,Nylon66
toluene,135,1.62593026,Nylon66
toluene,130,1.23571023,Nylon66
toluene,125,0.93124755,Nylon66
toluene,120,0.69574977,Nylon66
toluene,115,0.51518312,Nylon66
toluene,110,0.37796395,Nylon66
toluene,105,0.27463725,Nylon66
toluene,100,0.19756564,Nylon66
toluene,95,0.14064111,Nylon66
toluene,90,0.09902676,Nylon66
toluene,85,0.06892992,Nylon66
toluene,80,0.04740656,Nylon66
toluene,75,0.03219513,Nylon66
toluene,70,0.02157713,Nylon66
toluene,65,0.01426145,Nylon66
toluene,60,0.00928963,Nylon66
toluene,55,0.00595907,Nylon66
toluene,50,0.00376156,Nylon66
toluene,45,0.00233458,Nylon66
toluene,40,0.00142339,Nylon66
toluene,35,0.00085175,Nylon66
toluene,30,0.00049974,Nylon66
toluene,25,0.0002872,Nylon66
triethylamine,160,2.34238216,Nylon66
triethylamine,155,1.87735123,Nylon66
triethylamine,150,1.50032362,Nylon66
triethylamine,145,1.19554881,Nylon66
triethylamine,140,0.94993168,Nylon66
triethylamine,135,0.75260788,Nylon66
triethylamine,130,0.59458547,Nylon66
triethylamine,125,0.4684421,Nylon66
triethylamine,120,0.36806923,Nylon66
triethylamine,115,0.28845558,Nylon66
triethylamine,110,0.22550461,Nylon66
triethylamine,105,0.17587986,Nylon66
triethylamine,100,0.13687455,Nylon66
triethylamine,95,0.10630154,Nylon66
triethylamine,90,0.08240086,Nylon66
triethylamine,85,0.06376208,Nylon66
triethylamine,80,0.0492596,Nylon66
triethylamine,75,0.03799875,Nylon66
triethylamine,70,0.02927118,Nylon66
triethylamine,65,0.02251823,Nylon66
triethylamine,60,0.01730082,Nylon66
triethylamine,55,0.01327504,Nylon66
triethylamine,50,0.01017233,Nylon66
triethylamine,45,0.00778356,Nylon66
triethylamine,40,0.00594627,Nylon66
triethylamine,35,0.00453453,Nylon66
triethylamine,30,0.00345088,Nylon66
triethylamine,25,0.00262002,Nylon66
h2o,160,2.24E-05,Nylon66
h2o,155,1.59E-05,Nylon66
h2o,150,1.14E-05,Nylon66
h2o,145,8.16E-06,Nylon66
h2o,140,5.89E-06,Nylon66
h2o,135,4.28E-06,Nylon66
h2o,130,3.13E-06,Nylon66
h2o,125,2.32E-06,Nylon66
h2o,120,1.73E-06,Nylon66
h2o,115,1.31E-06,Nylon66
h2o,110,1.00E-06,Nylon66
h2o,105,7.70E-07,Nylon66
h2o,100,6.10E-07,Nylon66
h2o,95,4.90E-07,Nylon66
h2o,90,4.00E-07,Nylon66
h2o,85,3.30E-07,Nylon66
h2o,80,2.80E-07,Nylon66
h2o,75,2.40E-07,Nylon66
h2o,70,2.20E-07,Nylon66
h2o,65,2.00E-07,Nylon66
h2o,60,1.90E-07,Nylon66
h2o,55,1.80E-07,Nylon66
h2o,50,1.80E-07,Nylon66
h2o,45,1.80E-07,Nylon66
h2o,40,1.90E-07,Nylon66
h2o,35,2.10E-07,Nylon66
h2o,30,2.30E-07,Nylon66
h2o,25,2.70E-07,Nylon66
"1,4-dimethylbenzene",160,3.61518585,Nylon66
"1,4-dimethylbenzene",155,2.83618531,Nylon66
"1,4-dimethylbenzene",150,2.20942007,Nylon66
"1,4-dimethylbenzene",145,1.70894088,Nylon66
"1,4-dimethylbenzene",140,1.31224602,Nylon66
"1,4-dimethylbenzene",135,1.00012154,Nylon66
"1,4-dimethylbenzene",130,0.75635922,Nylon66
"1,4-dimethylbenzene",125,0.5674289,Nylon66
"1,4-dimethylbenzene",120,0.42214047,Nylon66
"1,4-dimethylbenzene",115,0.31131821,Nylon66
"1,4-dimethylbenzene",110,0.22749959,Nylon66
"1,4-dimethylbenzene",105,0.16466425,Nylon66
"1,4-dimethylbenzene",100,0.11799477,Nylon66
"1,4-dimethylbenzene",95,0.08366831,Nylon66
"1,4-dimethylbenzene",90,0.05867757,Nylon66
"1,4-dimethylbenzene",85,0.04067823,Nylon66
"1,4-dimethylbenzene",80,0.02786018,Nylon66
"1,4-dimethylbenzene",75,0.01883986,Nylon66
"1,4-dimethylbenzene",70,0.01257098,Nylon66
"1,4-dimethylbenzene",65,0.00827122,Nylon66
"1,4-dimethylbenzene",60,0.00536259,Nylon66
"1,4-dimethylbenzene",55,0.00342343,Nylon66
"1,4-dimethylbenzene",50,0.00215027,Nylon66
"1,4-dimethylbenzene",45,0.00132772,Nylon66
"1,4-dimethylbenzene",40,0.00080525,Nylon66
"1,4-dimethylbenzene",35,0.00047924,Nylon66
"1,4-dimethylbenzene",30,0.00027961,Nylon66
"1,4-dimethylbenzene",25,0.00015976,Nylon66
"1,2-dimethylbenzene",160,3.8165282,Nylon66
"1,2-dimethylbenzene",155,2.99985901,Nylon66
"1,2-dimethylbenzene",150,2.34104167,Nylon66
"1,2-dimethylbenzene",145,1.81372794,Nylon66
"1,2-dimethylbenzene",140,1.39487869,Nylon66
"1,2-dimethylbenzene",135,1.06468798,Nylon66
"1,2-dimethylbenzene",130,0.80635707,Nylon66
"1,2-dimethylbenzene",125,0.6058002,Nylon66
"1,2-dimethylbenzene",120,0.45132457,Nylon66
"1,2-dimethylbenzene",115,0.33331221,Nylon66
"1,2-dimethylbenzene",110,0.24391988,Nylon66
"1,2-dimethylbenzene",105,0.17680506,Nylon66
"1,2-dimethylbenzene",100,0.12688167,Nylon66
"1,2-dimethylbenzene",95,0.09010575,Nylon66
"1,2-dimethylbenzene",90,0.06329012,Nylon66
"1,2-dimethylbenzene",85,0.04394574,Nylon66
"1,2-dimethylbenzene",80,0.03014742,Nylon66
"1,2-dimethylbenzene",75,0.02042101,Nylon66
"1,2-dimethylbenzene",70,0.01364977,Nylon66
"1,2-dimethylbenzene",65,0.00899719,Nylon66
"1,2-dimethylbenzene",60,0.00584412,Nylon66
"1,2-dimethylbenzene",55,0.00373801,Nylon66
"1,2-dimethylbenzene",50,0.00235252,Nylon66
"1,2-dimethylbenzene",45,0.00145559,Nylon66
"1,2-dimethylbenzene",40,0.00088467,Nylon66
"1,2-dimethylbenzene",35,0.00052766,Nylon66
"1,2-dimethylbenzene",30,0.00030856,Nylon66
"1,2-dimethylbenzene",25,0.00017672,Nylon66
propanol,160,31.45468672,Nylon6
propanol,155,27.52835551,Nylon6
propanol,150,23.804366,Nylon6
propanol,145,20.32747369,Nylon6
propanol,140,17.13595956,Nylon6
propanol,135,14.25787554,Nylon6
propanol,130,11.70942876,Nylon6
propanol,125,9.49411532,Nylon6
propanol,120,7.60310773,Nylon6
propanol,115,6.0170191,Nylon6
propanol,110,4.7086748,Nylon6
propanol,105,3.64610099,Nylon6
propanol,100,2.79544201,Nylon6
propanol,95,2.1233368,Nylon6
propanol,90,1.59865581,Nylon6
propanol,85,1.19354373,Nylon6
propanol,80,0.88390638,Nylon6
propanol,75,0.64946205,Nylon6
propanol,70,0.47351726,Nylon6
propanol,65,0.34258646,Nylon6
propanol,60,0.24594655,Nylon6
propanol,55,0.17518627,Nylon6
propanol,50,0.12378618,Nylon6
propanol,45,0.08674692,Nylon6
propanol,40,0.06027222,Nylon6
propanol,35,0.04150573,Nylon6
propanol,30,0.0283171,Nylon6
propanol,25,0.01913093,Nylon6
2-propanol,160,31.2774337,Nylon6
2-propanol,155,27.30757032,Nylon6
2-propanol,150,23.54255017,Nylon6
2-propanol,145,20.03059537,Nylon6
2-propanol,140,16.81251204,Nylon6
2-propanol,135,13.91833322,Nylon6
2-propanol,130,11.36514301,Nylon6
2-propanol,125,9.15609014,Nylon6
2-propanol,120,7.28096005,Nylon6
2-propanol,115,5.71827961,Nylon6
2-propanol,110,4.43842156,Nylon6
2-propanol,105,3.40703313,Nylon6
2-propanol,100,2.58816775,Nylon6
2-propanol,95,1.94683977,Nylon6
2-propanol,90,1.450785,Nylon6
2-propanol,85,1.07146585,Nylon6
2-propanol,80,0.78447146,Nylon6
2-propanol,75,0.56947655,Nylon6
2-propanol,70,0.40992955,Nylon6
2-propanol,65,0.29260003,Nylon6
2-propanol,60,0.20707817,Nylon6
2-propanol,55,0.14528525,Nylon6
2-propanol,50,0.10102772,Nylon6
2-propanol,45,0.06960975,Nylon6
2-propanol,40,0.04750775,Nylon6
2-propanol,35,0.03210365,Nylon6
2-propanol,30,0.02147075,Nylon6
2-propanol,25,0.01420453,Nylon6
propanone,160,33.8373226,Nylon6
propanone,155,29.91768758,Nylon6
propanone,150,26.14952923,Nylon6
propanone,145,22.57538549,Nylon6
propanone,140,19.23570148,Nylon6
propanone,135,16.16531709,Nylon6
propanone,130,13.39190863,Nylon6
propanone,125,10.93276926,Nylon6
propanone,120,8.79398962,Nylon6
propanone,115,6.9701387,Nylon6
propanone,110,5.44512558,Nylon6
propanone,105,4.19426846,Nylon6
propanone,100,3.18708056,Nylon6
propanone,95,2.39021147,Nylon6
propanone,90,1.77006178,Nylon6
propanone,85,1.29485063,Nylon6
propanone,80,0.93595333,Nylon6
propanone,75,0.66859818,Nylon6
propanone,70,0.47203331,Nylon6
propanone,65,0.32934026,Nylon6
propanone,60,0.22703957,Nylon6
propanone,55,0.15460308,Nylon6
propanone,50,0.10395118,Nylon6
propanone,45,0.06898159,Nylon6
propanone,40,0.04515367,Nylon6
propanone,35,0.0291367,Nylon6
propanone,30,0.01852149,Nylon6
propanone,25,0.01158963,Nylon6
acetylacetone,160,11.47183233,Nylon6
acetylacetone,155,9.1838013,Nylon6
acetylacetone,150,7.28114165,Nylon6
acetylacetone,145,5.71964982,Nylon6
acetylacetone,140,4.45343985,Nylon6
acetylacetone,135,3.43793635,Nylon6
acetylacetone,130,2.63180879,Nylon6
acetylacetone,125,1.99804144,Nylon6
acetylacetone,120,1.5043633,Nylon6
acetylacetone,115,1.12323812,Nylon6
acetylacetone,110,0.8315851,Nylon6
acetylacetone,105,0.61034772,Nylon6
acetylacetone,100,0.44399844,Nylon6
acetylacetone,95,0.32003439,Nylon6
acetylacetone,90,0.22849781,Nylon6
acetylacetone,85,0.16153978,Nylon6
acetylacetone,80,0.11303538,Nylon6
acetylacetone,75,0.07825215,Nylon6
acetylacetone,70,0.05356963,Nylon6
acetylacetone,65,0.03624592,Nylon6
acetylacetone,60,0.02422585,Nylon6
acetylacetone,55,0.01598535,Nylon6
acetylacetone,50,0.01040675,Nylon6
acetylacetone,45,0.00667982,Nylon6
acetylacetone,40,0.00422433,Nylon6
acetylacetone,35,0.00263003,Nylon6
acetylacetone,30,0.0016107,Nylon6
acetylacetone,25,0.00096948,Nylon6
benzene,160,22.29341813,Nylon6
benzene,155,18.73379056,Nylon6
benzene,150,15.51190638,Nylon6
benzene,145,12.65470766,Nylon6
benzene,140,10.17308008,Nylon6
benzene,135,8.06167946,Nylon6
benzene,130,6.30072709,Nylon6
benzene,125,4.85955265,Nylon6
benzene,120,3.70072193,Nylon6
benzene,115,2.78404972,Nylon6
benzene,110,2.06984489,Nylon6
benzene,105,1.52119018,Nylon6
benzene,100,1.10527596,Nylon6
benzene,95,0.79396072,Nylon6
benzene,90,0.56378669,Nylon6
benzene,85,0.39565451,Nylon6
benzene,80,0.27431995,Nylon6
benzene,75,0.18782528,Nylon6
benzene,70,0.12693637,Nylon6
benzene,65,0.08462543,Nylon6
benzene,60,0.05561801,Nylon6
benzene,55,0.03600949,Nylon6
benzene,50,0.02294902,Nylon6
benzene,45,0.0143842,Nylon6
benzene,40,0.00885892,Nylon6
benzene,35,0.0053557,Nylon6
benzene,30,0.00317488,Nylon6
benzene,25,0.00184336,Nylon6
chcl3,160,28.31890406,Nylon6
chcl3,155,26.13746236,Nylon6
chcl3,150,24.10300543,Nylon6
chcl3,145,22.20911122,Nylon6
chcl3,140,20.45087846,Nylon6
chcl3,135,18.82055134,Nylon6
chcl3,130,17.31162498,Nylon6
chcl3,125,15.91816811,Nylon6
chcl3,120,14.63374967,Nylon6
chcl3,115,13.45244676,Nylon6
chcl3,110,12.36718508,Nylon6
chcl3,105,11.37313089,Nylon6
chcl3,100,10.4642295,Nylon6
chcl3,95,9.63480242,Nylon6
chcl3,90,8.87948987,Nylon6
chcl3,85,8.19370166,Nylon6
chcl3,80,7.57184706,Nylon6
chcl3,75,7.00988806,Nylon6
chcl3,70,6.50355342,Nylon6
chcl3,65,6.04831902,Nylon6
chcl3,60,5.64051095,Nylon6
chcl3,55,5.27654055,Nylon6
chcl3,50,4.95325244,Nylon6
chcl3,45,4.66769143,Nylon6
chcl3,40,4.41722116,Nylon6
chcl3,35,4.19953826,Nylon6
chcl3,30,4.01269037,Nylon6
chcl3,25,3.85509923,Nylon6
cyclohexane,160,3.18169681,Nylon6
cyclohexane,155,2.3604669,Nylon6
cyclohexane,150,1.74536599,Nylon6
cyclohexane,145,1.28484602,Nylon6
cyclohexane,140,0.94074173,Nylon6
cyclohexane,135,0.6844922,Nylon6
cyclohexane,130,0.49454143,Nylon6
cyclohexane,125,0.35453236,Nylon6
cyclohexane,120,0.25201637,Nylon6
cyclohexane,115,0.17751495,Nylon6
cyclohexane,110,0.12382143,Nylon6
cyclohexane,105,0.0854745,Nylon6
cyclohexane,100,0.05835559,Nylon6
cyclohexane,95,0.03937821,Nylon6
cyclohexane,90,0.02624661,Nylon6
cyclohexane,85,0.017268,Nylon6
cyclohexane,80,0.01120622,Nylon6
cyclohexane,75,0.00716814,Nylon6
cyclohexane,70,0.00451598,Nylon6
cyclohexane,65,0.00279991,Nylon6
cyclohexane,60,0.00170691,Nylon6
cyclohexane,55,0.00102225,Nylon6
cyclohexane,50,0.00060084,Nylon6
cyclohexane,45,0.00034624,Nylon6
cyclohexane,40,0.0001954,Nylon6
cyclohexane,35,0.00010786,Nylon6
cyclohexane,30,0.00005817,Nylon6
cyclohexane,25,0.00003061,Nylon6
cyclohexanol,160,17.95948718,Nylon6
cyclohexanol,155,15.09036863,Nylon6
cyclohexanol,150,12.54286963,Nylon6
cyclohexanol,145,10.31421917,Nylon6
cyclohexanol,140,8.39294957,Nylon6
cyclohexanol,135,6.76022309,Nylon6
cyclohexanol,130,5.39168685,Nylon6
cyclohexanol,125,4.25955149,Nylon6
cyclohexanol,120,3.33451973,Nylon6
cyclohexanol,115,2.58746755,Nylon6
cyclohexanol,110,1.99072711,Nylon6
cyclohexanol,105,1.51894551,Nylon6
cyclohexanol,100,1.14957865,Nylon6
cyclohexanol,95,0.86307102,Nylon6
cyclohexanol,90,0.64281264,Nylon6
cyclohexanol,85,0.47494743,Nylon6
cyclohexanol,80,0.34809613,Nylon6
cyclohexanol,75,0.25304174,Nylon6
cyclohexanol,70,0.18241074,Nylon6
cyclohexanol,65,0.13037073,Nylon6
cyclohexanol,60,0.09235677,Nylon6
cyclohexanol,55,0.06483143,Nylon6
cyclohexanol,50,0.04507983,Nylon6
cyclohexanol,45,0.0310379,Nylon6
cyclohexanol,40,0.02115101,Nylon6
cyclohexanol,35,0.01425921,Nylon6
cyclohexanol,30,0.00950522,Nylon6
cyclohexanol,25,0.00626162,Nylon6
"2,3-dihydropyran",160,22.11933159,Nylon6
"2,3-dihydropyran",155,18.71716201,Nylon6
"2,3-dihydropyran",150,15.62258137,Nylon6
"2,3-dihydropyran",145,12.85868622,Nylon6
"2,3-dihydropyran",140,10.43637852,Nylon6
"2,3-dihydropyran",135,8.35364368,Nylon6
"2,3-dihydropyran",130,6.59642366,Nylon6
"2,3-dihydropyran",125,5.14079038,Nylon6
"2,3-dihydropyran",120,3.95586597,Nylon6
"2,3-dihydropyran",115,3.00705638,Nylon6
"2,3-dihydropyran",110,2.25892783,Nylon6
"2,3-dihydropyran",105,1.67748327,Nylon6
"2,3-dihydropyran",100,1.23167614,Nylon6
"2,3-dihydropyran",95,0.89424156,Nylon6
"2,3-dihydropyran",90,0.64197928,Nylon6
"2,3-dihydropyran",85,0.45565489,Nylon6
"2,3-dihydropyran",80,0.31966677,Nylon6
"2,3-dihydropyran",75,0.22159677,Nylon6
"2,3-dihydropyran",70,0.1517246,Nylon6
"2,3-dihydropyran",65,0.10255683,Nylon6
"2,3-dihydropyran",60,0.06839873,Nylon6
"2,3-dihydropyran",55,0.04498178,Nylon6
"2,3-dihydropyran",50,0.02914962,Nylon6
"2,3-dihydropyran",45,0.01859996,Nylon6
"2,3-dihydropyran",40,0.01167675,Nylon6
"2,3-dihydropyran",35,0.00720579,Nylon6
"2,3-dihydropyran",30,0.00436699,Nylon6
"2,3-dihydropyran",25,0.00259647,Nylon6
dimethylformamide,160,26.65701154,Nylon6
dimethylformamide,155,23.26624573,Nylon6
dimethylformamide,150,20.11273395,Nylon6
dimethylformamide,145,17.21334234,Nylon6
dimethylformamide,140,14.5798659,Nylon6
dimethylformamide,135,12.21825357,Nylon6
dimethylformamide,130,10.12823019,Nylon6
dimethylformamide,125,8.30362314,Nylon6
dimethylformamide,120,6.73287014,Nylon6
dimethylformamide,115,5.39956076,Nylon6
dimethylformamide,110,4.28357728,Nylon6
dimethylformamide,105,3.36228834,Nylon6
dimethylformamide,100,2.61185219,Nylon6
dimethylformamide,95,2.00844004,Nylon6
dimethylformamide,90,1.52921574,Nylon6
dimethylformamide,85,1.15309385,Nylon6
dimethylformamide,80,0.86121202,Nylon6
dimethylformamide,75,0.63714696,Nylon6
dimethylformamide,70,0.46693613,Nylon6
dimethylformamide,65,0.33895043,Nylon6
dimethylformamide,60,0.2436782,Nylon6
dimethylformamide,55,0.17346388,Nylon6
dimethylformamide,50,0.12223443,Nylon6
dimethylformamide,45,0.08523573,Nylon6
dimethylformamide,40,0.05879181,Nylon6
dimethylformamide,35,0.04009357,Nylon6
dimethylformamide,30,0.02701864,Nylon6
dimethylformamide,25,0.0179814,Nylon6
dimethylsulfoxide,160,13.43581488,Nylon6
dimethylsulfoxide,155,11.27603648,Nylon6
dimethylsulfoxide,150,9.40667954,Nylon6
dimethylsulfoxide,145,7.79827316,Nylon6
dimethylsulfoxide,140,6.42323389,Nylon6
dimethylsulfoxide,135,5.25577903,Nylon6
dimethylsulfoxide,130,4.2717586,Nylon6
dimethylsulfoxide,125,3.44860227,Nylon6
dimethylsulfoxide,120,2.76530603,Nylon6
dimethylsulfoxide,115,2.20252486,Nylon6
dimethylsulfoxide,110,1.7426007,Nylon6
dimethylsulfoxide,105,1.36962166,Nylon6
dimethylsulfoxide,100,1.06943599,Nylon6
dimethylsulfoxide,95,0.82962438,Nylon6
dimethylsulfoxide,90,0.63943194,Nylon6
dimethylsulfoxide,85,0.4896611,Nylon6
dimethylsulfoxide,80,0.37254216,Nylon6
dimethylsulfoxide,75,0.28158523,Nylon6
dimethylsulfoxide,70,0.21142685,Nylon6
dimethylsulfoxide,65,0.15767827,Nylon6
dimethylsulfoxide,60,0.11678165,Nylon6
dimethylsulfoxide,55,0.0858779,Nylon6
dimethylsulfoxide,50,0.0626886,Nylon6
dimethylsulfoxide,45,0.04541244,Nylon6
dimethylsulfoxide,40,0.03263631,Nylon6
dimethylsulfoxide,35,0.02325998,Nylon6
dimethylsulfoxide,30,0.01643322,Nylon6
dimethylsulfoxide,25,0.01150385,Nylon6
diphenylether,160,7.14360504,Nylon6
diphenylether,155,5.6944365,Nylon6
diphenylether,150,4.50252117,Nylon6
diphenylether,145,3.53175954,Nylon6
diphenylether,140,2.74844334,Nylon6
diphenylether,135,2.12199408,Nylon6
diphenylether,130,1.62531428,Nylon6
diphenylether,125,1.23485156,Nylon6
diphenylether,120,0.93046694,Nylon6
diphenylether,115,0.69518206,Nylon6
diphenylether,110,0.51486061,Nylon6
diphenylether,105,0.37786556,Nylon6
diphenylether,100,0.27471757,Nylon6
diphenylether,95,0.19777195,Nylon6
diphenylether,90,0.1409233,Nylon6
diphenylether,85,0.09934242,Nylon6
diphenylether,80,0.06924647,Nylon6
diphenylether,75,0.04770143,Nylon6
diphenylether,70,0.03245474,Nylon6
diphenylether,65,0.02179521,Nylon6
diphenylether,60,0.01443723,Nylon6
diphenylether,55,0.00942603,Nylon6
diphenylether,50,0.00606117,Nylon6
diphenylether,45,0.00383532,Nylon6
diphenylether,40,0.00238602,Nylon6
diphenylether,35,0.001458,Nylon6
diphenylether,30,0.00087417,Nylon6
diphenylether,25,0.00051371,Nylon6
dodecane,160,0.74149365,Nylon6
dodecane,155,0.55826208,Nylon6
dodecane,150,0.41772087,Nylon6
dodecane,145,0.31046735,Nylon6
dodecane,140,0.22908837,Nylon6
dodecane,135,0.1677375,Nylon6
dodecane,130,0.12181027,Nylon6
dodecane,125,0.08769039,Nylon6
dodecane,120,0.06254913,Nylon6
dodecane,115,0.04418502,Nylon6
dodecane,110,0.03089524,Nylon6
dodecane,105,0.02137187,Nylon6
dodecane,100,0.01461808,Nylon6
dodecane,95,0.0098807,Nylon6
dodecane,90,0.00659592,Nylon6
dodecane,85,0.00434591,Nylon6
dodecane,80,0.00282433,Nylon6
dodecane,75,0.00180915,Nylon6
dodecane,70,0.0011414,Nylon6
dodecane,65,0.00070869,Nylon6
dodecane,60,0.00043268,Nylon6
dodecane,55,0.00025953,Nylon6
dodecane,50,0.00015279,Nylon6
dodecane,45,0.00008819,Nylon6
dodecane,40,0.00004986,Nylon6
dodecane,35,0.00002758,Nylon6
dodecane,30,0.0000149,Nylon6
dodecane,25,0.00000786,Nylon6
ethanol,160,36.8721768,Nylon6
ethanol,155,32.5170215,Nylon6
ethanol,150,28.30356091,Nylon6
ethanol,145,24.29643452,Nylon6
ethanol,140,20.55661834,Nylon6
ethanol,135,17.13574056,Nylon6
ethanol,130,14.07162976,Nylon6
ethanol,125,11.38541212,Nylon6
ethanol,120,9.08053046,Nylon6
ethanol,115,7.14363037,Nylon6
ethanol,110,5.54790179,Nylon6
ethanol,105,4.25724378,Nylon6
ethanol,100,3.23077646,Nylon6
ethanol,95,2.42674921,Nylon6
ethanol,90,1.80550731,Nylon6
ethanol,85,1.33134646,Nylon6
ethanol,80,0.97342817,Nylon6
ethanol,75,0.70596708,Nylon6
ethanol,70,0.50795665,Nylon6
ethanol,65,0.3626409,Nylon6
ethanol,60,0.25688488,Nylon6
ethanol,55,0.18054188,Nylon6
ethanol,50,0.12587143,Nylon6
ethanol,45,0.0870337,Nylon6
ethanol,40,0.0596666,Nylon6
ethanol,35,0.04054188,Nylon6
ethanol,30,0.02729127,Nylon6
ethanol,25,0.0181921,Nylon6
ethylacetate,160,22.66525253,Nylon6
ethylacetate,155,19.37608405,Nylon6
ethylacetate,150,16.36085382,Nylon6
ethylacetate,145,13.63954786,Nylon6
ethylacetate,140,11.22367166,Nylon6
ethylacetate,135,9.11532499,Nylon6
ethylacetate,130,7.30705034,Nylon6
ethylacetate,125,5.78272741,Nylon6
ethylacetate,120,4.51933139,Nylon6
ethylacetate,115,3.48917138,Nylon6
ethylacetate,110,2.6621659,Nylon6
ethylacetate,105,2.00796816,Nylon6
ethylacetate,100,1.49763078,Nylon6
ethylacetate,95,1.10473858,Nylon6
ethylacetate,90,0.80604806,Nylon6
ethylacetate,85,0.58170959,Nylon6
ethylacetate,80,0.41519371,Nylon6
ethylacetate,75,0.29302866,Nylon6
ethylacetate,70,0.2044386,Nylon6
ethylacetate,65,0.14094623,Nylon6
ethylacetate,60,0.09598305,Nylon6
ethylacetate,55,0.06453113,Nylon6
ethylacetate,50,0.04280878,Nylon6
ethylacetate,45,0.02800357,Nylon6
ethylacetate,40,0.01805149,Nylon6
ethylacetate,35,0.01145795,Nylon6
ethylacetate,30,0.00715557,Nylon6
ethylacetate,25,0.00439284,Nylon6
glycol,160,3.4913546,Nylon6
glycol,155,2.65230704,Nylon6
glycol,150,2.01191871,Nylon6
glycol,145,1.52310866,Nylon6
glycol,140,1.15030378,Nylon6
glycol,135,0.86640708,Nylon6
glycol,130,0.65066604,Nylon6
glycol,125,0.48713049,Nylon6
glycol,120,0.36352085,Nylon6
glycol,115,0.27037912,Nylon6
glycol,110,0.20042579,Nylon6
glycol,105,0.14806702,Nylon6
glycol,100,0.10901424,Nylon6
glycol,95,0.07998892,Nylon6
glycol,90,0.05849291,Nylon6
glycol,85,0.04262945,Nylon6