Solvent,Temperature (°C),Solubility (%),Polymer
glycol,80,0.03096384,Nylon6
glycol,75,0.02241513,Nylon6
glycol,70,0.01617211,Nylon6
glycol,65,0.01162846,Nylon6
glycol,60,0.00833278,Nylon6
glycol,55,0.00595034,Nylon6
glycol,50,0.00423387,Nylon6
glycol,45,0.00300138,Nylon6
glycol,40,0.00211946,Nylon6
glycol,35,0.00149059,Nylon6
glycol,30,0.00104379,Nylon6
glycol,25,0.00072756,Nylon6
n-heptane,160,1.78421577,Nylon6
n-heptane,155,1.336836,Nylon6
n-heptane,150,0.99653038,Nylon6
n-heptane,145,0.7385189,Nylon6
n-heptane,140,0.54374624,Nylon6
n-heptane,135,0.39748467,Nylon6
n-heptane,130,0.28831944,Nylon6
n-heptane,125,0.20739915,Nylon6
n-heptane,120,0.14786843,Nylon6
n-heptane,115,0.10443302,Nylon6
n-heptane,110,0.07302175,Nylon6
n-heptane,105,0.05052121,Nylon6
n-heptane,100,0.03456625,Nylon6
n-heptane,95,0.02337383,Nylon6
n-heptane,90,0.01561131,Nylon6
n-heptane,85,0.01029205,Nylon6
n-heptane,80,0.00669306,Nylon6
n-heptane,75,0.00429042,Nylon6
n-heptane,70,0.00270896,Nylon6
n-heptane,65,0.0016834,Nylon6
n-heptane,60,0.0010287,Nylon6
n-heptane,55,0.00061761,Nylon6
n-heptane,50,0.00036396,Nylon6
n-heptane,45,0.00021031,Nylon6
n-heptane,40,0.00011903,Nylon6
n-heptane,35,0.00006591,Nylon6
n-heptane,30,0.00003566,Nylon6
n-heptane,25,0.00001882,Nylon6
hexane,160,2.40663251,Nylon6
hexane,155,1.79888221,Nylon6
hexane,150,1.33839946,Nylon6
hexane,145,0.99036789,Nylon6
hexane,140,0.72829719,Nylon6
hexane,135,0.53189112,Nylon6
hexane,130,0.38552939,Nylon6
hexane,125,0.27716971,Nylon6
hexane,120,0.19752834,Nylon6
hexane,115,0.13946181,Nylon6
hexane,110,0.09749269,Nylon6
hexane,105,0.06744147,Nylon6
hexane,100,0.04613854,Nylon6
hexane,95,0.03119749,Nylon6
hexane,90,0.02083642,Nylon6
hexane,85,0.01373701,Nylon6
hexane,80,0.00893371,Nylon6
hexane,75,0.00572707,Nylon6
hexane,70,0.00361632,Nylon6
hexane,65,0.00224745,Nylon6
hexane,60,0.00137352,Nylon6
hexane,55,0.00082472,Nylon6
hexane,50,0.00048607,Nylon6
hexane,45,0.0002809,Nylon6
hexane,40,0.00015901,Nylon6
hexane,35,0.00008805,Nylon6
hexane,30,0.00004765,Nylon6
hexane,25,0.00002516,Nylon6
isopropylamine,160,37.13606749,Nylon6
isopropylamine,155,33.44604886,Nylon6
isopropylamine,150,29.84904829,Nylon6
isopropylamine,145,26.37637963,Nylon6
isopropylamine,140,23.06085885,Nylon6
isopropylamine,135,19.93430643,Nylon6
isopropylamine,130,17.02555649,Nylon6
isopropylamine,125,14.35951529,Nylon6
isopropylamine,120,11.95454218,Nylon6
isopropylamine,115,9.82162758,Nylon6
isopropylamine,110,7.96279388,Nylon6
isopropylamine,105,6.37140722,Nylon6
isopropylamine,100,5.03294994,Nylon6
isopropylamine,95,3.92654895,Nylon6
isopropylamine,90,3.02703444,Nylon6
isopropylamine,85,2.3071214,Nylon6
isopropylamine,80,1.73937386,Nylon6
isopropylamine,75,1.29772657,Nylon6
isopropylamine,70,0.95853091,Nylon6
isopropylamine,65,0.70110798,Nylon6
isopropylamine,60,0.50792528,Nylon6
isopropylamine,55,0.36449163,Nylon6
isopropylamine,50,0.25908522,Nylon6
isopropylamine,45,0.18239782,Nylon6
isopropylamine,40,0.12715551,Nylon6
isopropylamine,35,0.08775467,Nylon6
isopropylamine,30,0.0599337,Nylon6
isopropylamine,25,0.04049026,Nylon6
methanol,160,36.14986836,Nylon6
methanol,155,31.00646242,Nylon6
methanol,150,26.16925853,Nylon6
methanol,145,21.73242608,Nylon6
methanol,140,17.76282984,Nylon6
methanol,135,14.29694403,Nylon6
methanol,130,11.34112171,Nylon6
methanol,125,8.87561285,Nylon6
methanol,120,6.86075255,Nylon6
methanol,115,5.24437364,Nylon6
methanol,110,3.96883653,Nylon6
methanol,105,2.976691,Nylon6
methanol,100,2.21461454,Nylon6
methanol,95,1.63561844,Nylon6
methanol,90,1.19989751,Nylon6
methanol,85,0.87474503,Nylon6
methanol,80,0.63392139,Nylon6
methanol,75,0.45677189,Nylon6
methanol,70,0.32728425,Nylon6
methanol,65,0.2331999,Nylon6
methanol,60,0.16523166,Nylon6
methanol,55,0.11640608,Nylon6
methanol,50,0.08152776,Nylon6
methanol,45,0.05675293,Nylon6
methanol,40,0.03925599,Nylon6
methanol,35,0.02697224,Nylon6
methanol,30,0.01840166,Nylon6
methanol,25,0.01246057,Nylon6
methylacetate,160,26.56984315,Nylon6
methylacetate,155,22.92374607,Nylon6
methylacetate,150,19.52137599,Nylon6
methylacetate,145,16.39806148,Nylon6
methylacetate,140,13.58074688,Nylon6
methylacetate,135,11.08619888,Nylon6
methylacetate,130,8.91956466,Nylon6
methylacetate,125,7.07406046,Nylon6
methylacetate,120,5.53213039,Nylon6
methylacetate,115,4.26776116,Nylon6
methylacetate,110,3.24940866,Nylon6
methylacetate,105,2.442954,Nylon6
methylacetate,100,1.81435207,Nylon6
methylacetate,95,1.33159573,Nylon6
methylacetate,90,0.96598429,Nylon6
methylacetate,85,0.69273211,Nylon6
methylacetate,80,0.49108587,Nylon6
methylacetate,75,0.3441096,Nylon6
methylacetate,70,0.23828052,Nylon6
methylacetate,65,0.1630035,Nylon6
methylacetate,60,0.11011566,Nylon6
methylacetate,55,0.07342405,Nylon6
methylacetate,50,0.04829775,Nylon6
methylacetate,45,0.03132188,Nylon6
methylacetate,40,0.02001272,Nylon6
methylacetate,35,0.01258865,Nylon6
methylacetate,30,0.00778962,Nylon6
methylacetate,25,0.0047374,Nylon6
butanone,160,28.05809579,Nylon6
butanone,155,24.40483353,Nylon6
butanone,150,20.97026711,Nylon6
butanone,145,17.7891464,Nylon6
butanone,140,14.89037759,Nylon6
butanone,135,12.29410548,Nylon6
butanone,130,10.0103971,Nylon6
butanone,125,8.03850188,Nylon6
butanone,120,6.36719621,Nylon6
butanone,115,4.97630669,Nylon6
butanone,110,3.8390565,Nylon6
butanone,105,2.92474513,Nylon6
butanone,100,2.20128532,Nylon6
butanone,95,1.63735845,Nylon6
butanone,90,1.20394424,Nylon6
butanone,85,0.87525897,Nylon6
butanone,80,0.62915809,Nylon6
butanone,75,0.44715157,Nylon6
butanone,70,0.3141635,Nylon6
butanone,65,0.21815011,Nylon6
butanone,60,0.14966101,Nylon6
butanone,55,0.10139934,Nylon6
butanone,50,0.06781445,Nylon6
butanone,45,0.04474321,Nylon6
butanone,40,0.02910569,Nylon6
butanone,35,0.01865412,Nylon6
butanone,30,0.01177036,Nylon6
butanone,25,0.00730578,Nylon6
ch2cl2,160,37.9408658,Nylon6
ch2cl2,155,35.29872492,Nylon6
ch2cl2,150,32.74255705,Nylon6
ch2cl2,145,30.27420339,Nylon6
ch2cl2,140,27.89504258,Nylon6
ch2cl2,135,25.60897424,Nylon6
ch2cl2,130,23.41636583,Nylon6
ch2cl2,125,21.31931283,Nylon6
ch2cl2,120,19.32119984,Nylon6
ch2cl2,115,17.42266036,Nylon6
ch2cl2,110,15.62563156,Nylon6
ch2cl2,105,13.93256689,Nylon6
ch2cl2,100,12.34406166,Nylon6
ch2cl2,95,10.86252848,Nylon6
ch2cl2,90,9.4888034,Nylon6
ch2cl2,85,8.22382577,Nylon6
ch2cl2,80,7.06787735,Nylon6
ch2cl2,75,6.0204758,Nylon6
ch2cl2,70,5.08040624,Nylon6
ch2cl2,65,4.24529987,Nylon6
ch2cl2,60,3.51163078,Nylon6
ch2cl2,55,2.87459645,Nylon6
ch2cl2,50,2.32835001,Nylon6
ch2cl2,45,1.86588527,Nylon6
ch2cl2,40,1.47940859,Nylon6
ch2cl2,35,1.16061812,Nylon6
ch2cl2,30,0.90102543,Nylon6
ch2cl2,25,0.69228458,Nylon6
propyleneglycol,160,11.21902277,Nylon6
propyleneglycol,155,8.89979776,Nylon6
propyleneglycol,150,7.01404053,Nylon6
propyleneglycol,145,5.49541951,Nylon6
propyleneglycol,140,4.28234613,Nylon6
propyleneglycol,135,3.32013519,Nylon6
propyleneglycol,130,2.56167665,Nylon6
propyleneglycol,125,1.96723438,Nylon6
propyleneglycol,120,1.50382353,Nylon6
propyleneglycol,115,1.14439348,Nylon6
propyleneglycol,110,0.86697767,Nylon6
propyleneglycol,105,0.6538851,Nylon6
propyleneglycol,100,0.49097064,Nylon6
propyleneglycol,95,0.36699795,Nylon6
propyleneglycol,90,0.27309488,Nylon6
propyleneglycol,85,0.2022961,Nylon6
propyleneglycol,80,0.14916329,Nylon6
propyleneglycol,75,0.10947296,Nylon6
propyleneglycol,70,0.07996226,Nylon6
propyleneglycol,65,0.05812341,Nylon6
propyleneglycol,60,0.04203879,Nylon6
propyleneglycol,55,0.03024944,Nylon6
propyleneglycol,50,0.02165087,Nylon6
propyleneglycol,45,0.01541112,Nylon6
propyleneglycol,40,0.01090661,Nylon6
propyleneglycol,35,0.00767224,Nylon6
propyleneglycol,30,0.00536283,Nylon6
propyleneglycol,25,0.0037235,Nylon6
tert-butanol,160,25.61249844,Nylon6
tert-butanol,155,22.02304749,Nylon6
tert-butanol,150,18.7050198,Nylon6
tert-butanol,145,15.6879208,Nylon6
tert-butanol,140,12.99108551,Nylon6
tert-butanol,135,10.62242361,Nylon6
tert-butanol,130,8.57820579,Nylon6
tert-butanol,125,6.84411553,Nylon6
tert-butanol,120,5.39733653,Nylon6
tert-butanol,115,4.2092064,Nylon6
tert-butanol,110,3.24786442,Nylon6
tert-butanol,105,2.48071837,Nylon6
tert-butanol,100,1.87637384,Nylon6
tert-butanol,95,1.4059516,Nylon6
tert-butanol,90,1.04385682,Nylon6
tert-butanol,85,0.76807535,Nylon6
tert-butanol,80,0.56013818,Nylon6
tert-butanol,75,0.40487101,Nylon6
tert-butanol,70,0.29002681,Nylon6
tert-butanol,65,0.2058736,Nylon6
tert-butanol,60,0.14478339,Nylon6
tert-butanol,55,0.1008516,Nylon6
tert-butanol,50,0.06956017,Nylon6
tert-butanol,45,0.04748961,Nylon6
tert-butanol,40,0.03207914,Nylon6
tert-butanol,35,0.0214308,Nylon6
tert-butanol,30,0.01415242,Nylon6
tert-butanol,25,0.00923344,Nylon6
thf,160,30.9981479,Nylon6
thf,155,27.46406301,Nylon6
thf,150,24.08804221,Nylon6
thf,145,20.89899664,Nylon6
thf,140,17.92329722,Nylon6
thf,135,15.18442268,Nylon6
thf,130,12.70049649,Nylon6
thf,125,10.48370356,Nylon6
thf,120,8.53826539,Nylon6
thf,115,6.86046945,Nylon6
thf,110,5.43891924,Nylon6
thf,105,4.25553047,Nylon6
thf,100,3.28722029,Nylon6
thf,95,2.5079209,Nylon6
thf,90,1.89055801,Nylon6
thf,85,1.40871258,Nylon6
thf,80,1.03788287,Nylon6
thf,75,0.7562516,Nylon6
thf,70,0.54504588,Nylon6
thf,65,0.38856343,Nylon6
thf,60,0.27398324,Nylon6
thf,55,0.19105161,Nylon6
thf,50,0.13171547,Nylon6
thf,45,0.0897519,Nylon6
thf,40,0.06042293,Nylon6
thf,35,0.04017105,Nylon6
thf,30,0.02636045,Nylon6
thf,25,0.01706357,Nylon6
thp,160,21.6285737,Nylon6
thp,155,18.36574883,Nylon6
thp,150,15.40708643,Nylon6
thp,145,12.76730235,Nylon6
thp,140,10.45070394,Nylon6
thp,135,8.45117444,Nylon6
thp,130,6.7533926,Nylon6
thp,125,5.33459366,Nylon6
thp,120,4.16691685,Nylon6
thp,115,3.21975147,Nylon6
thp,110,2.46190154,Nylon6
thp,105,1.86330211,Nylon6
thp,100,1.39621512,Nylon6
thp,95,1.03594265,Nylon6
thp,90,0.76112403,Nylon6
thp,85,0.55373041,Nylon6
thp,80,0.39885774,Nylon6
thp,75,0.28440468,Nylon6
thp,70,0.20070046,Nylon6
thp,65,0.14012655,Nylon6
thp,60,0.09676007,Nylon6
thp,55,0.06605357,Nylon6
thp,50,0.04455743,Nylon6
thp,45,0.02968563,Nylon6
thp,40,0.0195224,Nylon6
thp,35,0.01266543,Nylon6
thp,30,0.00810073,Nylon6
thp,25,0.00510438,Nylon6
toluene,160,15.86744798,Nylon6
toluene,155,12.94308116,Nylon6
toluene,150,10.42245332,Nylon6
toluene,145,8.28967505,Nylon6
toluene,140,6.51611562,Nylon6
toluene,135,5.06477758,Nylon6
toluene,130,3.8945454,Nylon6
toluene,125,2.96372573,Nylon6
toluene,120,2.23261394,Nylon6
toluene,115,1.66510629,Nylon6
toluene,110,1.22951011,Nylon6
toluene,105,0.89876873,Nylon6
toluene,100,0.65029791,Nylon6
toluene,95,0.46559853,Nylon6
toluene,90,0.32976097,Nylon6
toluene,85,0.2309401,Nylon6
toluene,80,0.15984863,Nylon6
toluene,75,0.10929489,Nylon6
toluene,70,0.07377682,Nylon6
toluene,65,0.04913528,Nylon6
toluene,60,0.03226424,Nylon6
toluene,55,0.02087281,Nylon6
toluene,50,0.01329303,Nylon6
toluene,45,0.00832678,Nylon6
toluene,40,0.00512553,Nylon6
toluene,35,0.00309727,Nylon6
toluene,30,0.00183541,Nylon6
toluene,25,0.00106539,Nylon6
triethylamine,160,6.78369498,Nylon6
triethylamine,155,5.35631149,Nylon6
triethylamine,150,4.21193307,Nylon6
triethylamine,145,3.29847525,Nylon6
triethylamine,140,2.57242418,Nylon6
triethylamine,135,1.99776081,Nylon6
triethylamine,130,1.54485452,Nylon6
triethylamine,125,1.18945946,Nylon6
triethylamine,120,0.91182158,Nylon6
triethylamine,115,0.69591423,Nylon6
triethylamine,110,0.52878985,Nylon6
triethylamine,105,0.40003449,Nylon6
triethylamine,100,0.30131029,Nylon6
triethylamine,95,0.22597412,Nylon6
triethylamine,90,0.16875975,Nylon6
triethylamine,85,0.12551441,Nylon6
triethylamine,80,0.09298108,Nylon6
triethylamine,75,0.06861943,Nylon6
triethylamine,70,0.05045923,Nylon6
triethylamine,65,0.03698111,Nylon6
triethylamine,60,0.02702002,Nylon6
triethylamine,55,0.0196877,Nylon6
triethylamine,50,0.01431069,Nylon6
triethylamine,45,0.01038128,Nylon6
triethylamine,40,0.00751877,Nylon6
triethylamine,35,0.00543922,Nylon6
triethylamine,30,0.00393197,Nylon6
triethylamine,25,0.00284154,Nylon6
h2o,160,0.00005746,Nylon6
h2o,155,0.00004072,Nylon6
h2o,150,0.00002898,Nylon6
h2o,145,0.00002074,Nylon6
h2o,140,0.00001493,Nylon6
h2o,135,0.00001083,Nylon6
h2o,130,0.00000792,Nylon6
h2o,125,0.00000585,Nylon6
h2o,120,0.00000437,Nylon6
h2o,115,0.0000033,Nylon6
h2o,110,0.00000253,Nylon6
h2o,105,0.00000196,Nylon6
h2o,100,0.00000155,Nylon6
h2o,95,0.00000125,Nylon6
h2o,90,0.00000102,Nylon6
h2o,85,0.00000085,Nylon6
h2o,80,0.00000073,Nylon6
h2o,75,0.00000064,Nylon6
h2o,70,0.00000057,Nylon6
h2o,65,0.00000053,Nylon6
h2o,60,0.0000005,Nylon6
h2o,55,0.00000048,Nylon6
h2o,50,0.00000049,Nylon6
h2o,45,0.0000005,Nylon6
h2o,40,0.00000054,Nylon6
h2o,35,0.00000059,Nylon6
h2o,30,0.00000068,Nylon6
h2o,25,0.00000081,Nylon6
"1,4-dimethylbenzene",160,11.20484073,Nylon6
"1,4-dimethylbenzene",155,8.9381487,Nylon6
"1,4-dimethylbenzene",150,7.05735383,Nylon6
"1,4-dimethylbenzene",145,5.51855988,Nylon6
"1,4-dimethylbenzene",140,4.27545245,Nylon6
"1,4-dimethylbenzene",135,3.28274098,Nylon6
"1,4-dimethylbenzene",130,2.49839038,Nylon6
"1,4-dimethylbenzene",125,1.88483853,Nylon6
"1,4-dimethylbenzene",120,1.40946778,Nylon6
"1,4-dimethylbenzene",115,1.04458074,Nylon6
"1,4-dimethylbenzene",110,0.76707942,Nylon6
"1,4-dimethylbenzene",105,0.55799061,Nylon6
"1,4-dimethylbenzene",100,0.40193246,Nylon6
"1,4-dimethylbenzene",95,0.28658119,Nylon6
"1,4-dimethylbenzene",90,0.20217078,Nylon6
"1,4-dimethylbenzene",85,0.1410436,Nylon6
"1,4-dimethylbenzene",80,0.09725722,Nylon6
"1,4-dimethylbenzene",75,0.06624821,Nylon6
"1,4-dimethylbenzene",70,0.04454939,Nylon6
"1,4-dimethylbenzene",65,0.02955538,Nylon6
"1,4-dimethylbenzene",60,0.01933081,Nylon6
"1,4-dimethylbenzene",55,0.01245524,Nylon6
"1,4-dimethylbenzene",50,0.00789932,Nylon6
"1,4-dimethylbenzene",45,0.00492702,Nylon6
"1,4-dimethylbenzene",40,0.00301948,Nylon6
"1,4-dimethylbenzene",35,0.00181634,Nylon6
"1,4-dimethylbenzene",30,0.00107132,Nylon6
"1,4-dimethylbenzene",25,0.00061886,Nylon6
"1,2-dimethylbenzene",160,11.61490084,Nylon6
"1,2-dimethylbenzene",155,9.29322782,Nylon6
"1,2-dimethylbenzene",150,7.35777699,Nylon6
"1,2-dimethylbenzene",145,5.76759419,Nylon6
"1,2-dimethylbenzene",140,4.47819362,Nylon6
"1,2-dimethylbenzene",135,3.44516756,Nylon6
"1,2-dimethylbenzene",130,2.62665682,Nylon6
"1,2-dimethylbenzene",125,1.98480662,Nylon6
"1,2-dimethylbenzene",120,1.48643634,Nylon6
"1,2-dimethylbenzene",115,1.10316195,Nylon6
"1,2-dimethylbenzene",110,0.81117368,Nylon6
"1,2-dimethylbenzene",105,0.59082155,Nylon6
"1,2-dimethylbenzene",100,0.42611421,Nylon6
"1,2-dimethylbenzene",95,0.30419928,Nylon6
"1,2-dimethylbenzene",90,0.21486512,Nylon6
"1,2-dimethylbenzene",85,0.15008651,Nylon6
"1,2-dimethylbenzene",80,0.10362347,Nylon6
"1,2-dimethylbenzene",75,0.07067545,Nylon6
"1,2-dimethylbenzene",70,0.04758902,Nylon6
"1,2-dimethylbenzene",65,0.0316145,Nylon6
"1,2-dimethylbenzene",60,0.02070621,Nylon6
"1,2-dimethylbenzene",55,0.01336043,Nylon6
"1,2-dimethylbenzene",50,0.00848583,Nylon6
"1,2-dimethylbenzene",45,0.00530083,Nylon6
"1,2-dimethylbenzene",40,0.00325362,Nylon6
"1,2-dimethylbenzene",35,0.00196033,Nylon6
"1,2-dimethylbenzene",30,0.00115816,Nylon6
"1,2-dimethylbenzene",25,0.00067017,Nylon6
propanol,160,5.78635646,PES
propanol,155,3.19588505,PES
propanol,150,1.70388236,PES
propanol,145,0.88372342,PES
propanol,140,0.44784814,PES
propanol,135,0.22224119,PES
propanol,130,0.10808606,PES
propanol,125,0.05152575,PES
propanol,120,0.02407023,PES
propanol,115,0.01101393,PES
propanol,110,0.00493366,PES
propanol,105,0.0021622,PES
propanol,100,0.00092648,PES
propanol,95,0.00038788,PES
propanol,90,0.00015855,PES
propanol,85,0.00006323,PES
propanol,80,0.00002458,PES
propanol,75,0.00000931,PES
propanol,70,0.00000343,PES
propanol,65,0.00000123,PES
propanol,60,0.00000043,PES
propanol,55,0.00000014,PES
propanol,50,0.00000005,PES
propanol,45,0.00000002,PES
propanol,40,0,PES
propanol,35,0,PES
propanol,30,0,PES
propanol,25,0,PES
2-propanol,160,5.70056476,PES
2-propanol,155,3.14572469,PES
2-propanol,150,1.67716349,PES
2-propanol,145,0.87040024,PES
2-propanol,140,0.44153299,PES
2-propanol,135,0.21937636,PES
2-propanol,130,0.10684125,PES
2-propanol,125,0.05100985,PES
2-propanol,120,0.02386833,PES
2-propanol,115,0.01094079,PES
2-propanol,110,0.00491017,PES
2-propanol,105,0.00215628,PES
2-propanol,100,0.00092597,PES
2-propanol,95,0.00038858,PES
2-propanol,90,0.00015924,PES
2-propanol,85,0.00006368,PES
2-propanol,80,0.00002483,PES
2-propanol,75,0.00000943,PES
2-propanol,70,0.00000349,PES
2-propanol,65,0.00000126,PES
2-propanol,60,0.00000044,PES
2-propanol,55,0.00000015,PES
2-propanol,50,0.00000005,PES
2-propanol,45,0.00000002,PES
2-propanol,40,0,PES
2-propanol,35,0,PES
2-propanol,30,0,PES
2-propanol,25,0,PES
propanone,160,39.40969041,PES
propanone,155,34.30886432,PES
propanone,150,29.28122886,PES
propanone,145,24.39563485,PES
propanone,140,19.74123044,PES
propanone,135,15.42091978,PES
propanone,130,11.55319314,PES
propanone,125,8.24937628,PES
propanone,120,5.58934972,PES
propanone,115,3.59052497,PES
propanone,110,2.19431173,PES
propanone,105,1.28439705,PES
propanone,100,0.72566497,PES
propanone,95,0.39844646,PES
propanone,90,0.21367586,PES
propanone,85,0.11226511,PES
propanone,80,0.05788546,PES
propanone,75,0.0293114,PES
propanone,70,0.01457744,PES
propanone,65,0.0071182,PES
propanone,60,0.00341085,PES
propanone,55,0.00160269,PES
propanone,50,0.00073785,PES
propanone,45,0.00033253,PES
propanone,40,0.00014655,PES
propanone,35,0.0000631,PES
propanone,30,0.00002651,PES
propanone,25,0.00001085,PES
acetylacetone,160,11.88547139,PES
acetylacetone,155,8.14108614,PES
acetylacetone,150,5.3221051,PES
acetylacetone,145,3.33272378,PES
acetylacetone,140,2.01071558,PES
acetylacetone,135,1.17616367,PES
acetylacetone,130,0.67068094,PES
acetylacetone,125,0.37431376,PES
acetylacetone,120,0.20499978,PES
acetylacetone,115,0.11033381,PES
acetylacetone,110,0.05839797,PES
acetylacetone,105,0.03040115,PES
acetylacetone,100,0.01556352,PES
acetylacetone,95,0.00783215,PES
acetylacetone,90,0.00387237,PES
acetylacetone,85,0.00187984,PES
acetylacetone,80,0.00089537,PES
acetylacetone,75,0.00041811,PES
acetylacetone,70,0.00019126,PES
acetylacetone,65,0.00008563,PES
acetylacetone,60,0.00003749,PES
acetylacetone,55,0.00001603,PES
acetylacetone,50,0.00000669,PES
acetylacetone,45,0.00000272,PES
acetylacetone,40,0.00000108,PES
acetylacetone,35,0.00000042,PES
acetylacetone,30,0.00000016,PES
acetylacetone,25,0.00000006,PES
benzene,160,2.42200904,PES
benzene,155,1.3262039,PES
benzene,150,0.71422648,PES
benzene,145,0.37840731,PES
benzene,140,0.19716058,PES
benzene,135,0.10095806,PES
benzene,130,0.05076851,PES
benzene,125,0.02505112,PES
benzene,120,0.0121191,PES
benzene,115,0.00574302,PES
benzene,110,0.00266342,PES
benzene,105,0.00120769,PES
benzene,100,0.00053487,PES
benzene,95,0.00023114,PES
benzene,90,0.00009735,PES
benzene,85,0.00003992,PES
benzene,80,0.00001591,PES
benzene,75,0.00000616,PES
benzene,70,0.00000231,PES
benzene,65,0.00000084,PES
benzene,60,0.0000003,PES
benzene,55,0.0000001,PES
benzene,50,0.00000003,PES
benzene,45,0.00000001,PES
benzene,40,0,PES
benzene,35,0,PES
benzene,30,0,PES
benzene,25,0,PES
chcl3,160,2.58818352,PES
chcl3,155,1.54053822,PES
chcl3,150,0.89991377,PES
chcl3,145,0.51724246,PES
chcl3,140,0.29300113,PES
chcl3,135,0.16373676,PES
chcl3,130,0.0903109,PES
chcl3,125,0.0491736,PES
chcl3,120,0.02643122,PES
chcl3,115,0.01402289,PES
chcl3,110,0.00734178,PES
chcl3,105,0.00379224,PES
chcl3,100,0.00193195,PES
chcl3,95,0.00097044,PES
chcl3,90,0.00048047,PES
chcl3,85,0.0002344,PES
chcl3,80,0.00011264,PES
chcl3,75,0.00005329,PES
chcl3,70,0.00002482,PES
chcl3,65,0.00001137,PES
chcl3,60,0.00000513,PES
chcl3,55,0.00000227,PES
chcl3,50,0.00000099,PES
chcl3,45,0.00000042,PES
chcl3,40,0.00000018,PES
chcl3,35,0.00000007,PES
chcl3,30,0.00000003,PES
chcl3,25,0.00000001,PES
cyclohexane,160,0.00089163,PES
cyclohexane,155,0.00042313,PES
cyclohexane,150,0.00019683,PES
cyclohexane,145,0.00008967,PES
cyclohexane,140,0.00003998,PES
cyclohexane,135,0.00001743,PES
cyclohexane,130,0.00000742,PES
cyclohexane,125,0.00000308,PES
cyclohexane,120,0.00000125,PES
cyclohexane,115,0.00000049,PES
cyclohexane,110,0.00000019,PES
cyclohexane,105,0.00000007,PES