Solvent,Temperature (°C),Solubility (%),Polymer
ethanol,45,0.07293705,LDPE
ethanol,40,0.04777135,LDPE
ethanol,35,0.03092154,LDPE
ethanol,30,0.01976777,LDPE
ethanol,25,0.01247303,LDPE
ethylacetate,160,99.98159714,LDPE
ethylacetate,155,99.97655892,LDPE
ethylacetate,150,99.97012419,LDPE
ethylacetate,145,99.96190854,LDPE
ethylacetate,140,95.83451325,LDPE
ethylacetate,135,79.35527938,LDPE
ethylacetate,130,60.27931643,LDPE
ethylacetate,125,42.54444418,LDPE
ethylacetate,120,29.56206386,LDPE
ethylacetate,115,20.81056718,LDPE
ethylacetate,110,14.85425539,LDPE
ethylacetate,105,10.69774202,LDPE
ethylacetate,100,7.737989,LDPE
ethylacetate,95,5.60219512,LDPE
ethylacetate,90,4.04909941,LDPE
ethylacetate,85,2.9159223,LDPE
ethylacetate,80,2.08899429,LDPE
ethylacetate,75,1.48694772,LDPE
ethylacetate,70,1.05049139,LDPE
ethylacetate,65,0.73591737,LDPE
ethylacetate,60,0.51079864,LDPE
ethylacetate,55,0.3510167,LDPE
ethylacetate,50,0.23864647,LDPE
ethylacetate,45,0.16041097,LDPE
ethylacetate,40,0.10652992,LDPE
ethylacetate,35,0.06985111,LDPE
ethylacetate,30,0.0451897,LDPE
ethylacetate,25,0.02882444,LDPE
glycol,160,5.40822817,LDPE
glycol,155,4.98312066,LDPE
glycol,150,4.59300146,LDPE
glycol,145,4.23456056,LDPE
glycol,140,3.60435598,LDPE
glycol,135,2.54915114,LDPE
glycol,130,1.82070148,LDPE
glycol,125,1.30589146,LDPE
glycol,120,0.9373441,LDPE
glycol,115,0.67176239,LDPE
glycol,110,0.47989712,LDPE
glycol,105,0.34132688,LDPE
glycol,100,0.24147757,LDPE
glycol,95,0.16980165,LDPE
glycol,90,0.11860335,LDPE
glycol,85,0.0822454,LDPE
glycol,80,0.05659547,LDPE
glycol,75,0.03862956,LDPE
glycol,70,0.02614256,LDPE
glycol,65,0.01753447,LDPE
glycol,60,0.01165143,LDPE
glycol,55,0.00766706,LDPE
glycol,50,0.00499407,LDPE
glycol,45,0.00321854,LDPE
glycol,40,0.00205132,LDPE
glycol,35,0.00129227,LDPE
glycol,30,0.00080422,LDPE
glycol,25,0.00049413,LDPE
n-heptane,160,100,LDPE
n-heptane,155,100,LDPE
n-heptane,150,100,LDPE
n-heptane,145,100,LDPE
n-heptane,140,95.46432398,LDPE
n-heptane,135,80.64494261,LDPE
n-heptane,130,67.22690488,LDPE
n-heptane,125,55.31577833,LDPE
n-heptane,120,44.9420993,LDPE
n-heptane,115,36.06987956,LDPE
n-heptane,110,28.61035513,LDPE
n-heptane,105,22.43800656,LDPE
n-heptane,100,17.40622683,LDPE
n-heptane,95,13.36082069,LDPE
n-heptane,90,10.15042576,LDPE
n-heptane,85,7.63369954,LDPE
n-heptane,80,5.68361078,LDPE
n-heptane,75,4.18941493,LDPE
n-heptane,70,3.05694661,LDPE
n-heptane,65,2.20780164,LDPE
n-heptane,60,1.57787039,LDPE
n-heptane,55,1.11556383,LDPE
n-heptane,50,0.77996567,LDPE
n-heptane,45,0.53905829,LDPE
n-heptane,40,0.36810579,LDPE
n-heptane,35,0.24823374,LDPE
n-heptane,30,0.16521607,LDPE
n-heptane,25,0.10846173,LDPE
hexane,160,100,LDPE
hexane,155,100,LDPE
hexane,150,100,LDPE
hexane,145,100,LDPE
hexane,140,96.0772265,LDPE
hexane,135,82.93847114,LDPE
hexane,130,70.58100164,LDPE
hexane,125,59.20407486,LDPE
hexane,120,48.95180591,LDPE
hexane,115,39.90598073,LDPE
hexane,110,32.08633803,LDPE
hexane,105,25.45760247,LDPE
hexane,100,19.94122302,LDPE
hexane,95,15.42920359,LDPE
hexane,90,11.79762466,LDPE
hexane,85,8.91816118,LDPE
hexane,80,6.66678668,LDPE
hexane,75,4.92952583,LDPE
hexane,70,3.60564479,LDPE
hexane,65,2.60884271,LDPE
hexane,60,1.86705212,LDPE
hexane,55,1.32137615,LDPE
hexane,50,0.92457131,LDPE
hexane,45,0.63936404,LDPE
hexane,40,0.43678698,LDPE
hexane,35,0.29464331,LDPE
hexane,30,0.19615254,LDPE
hexane,25,0.12879558,LDPE
isopropylamine,160,99.99967372,LDPE
isopropylamine,155,99.99955744,LDPE
isopropylamine,150,99.99939508,LDPE
isopropylamine,145,99.9991672,LDPE
isopropylamine,140,97.19343234,LDPE
isopropylamine,135,85.93382101,LDPE
isopropylamine,130,72.45408733,LDPE
isopropylamine,125,58.09122867,LDPE
isopropylamine,120,44.82689271,LDPE
isopropylamine,115,33.84804877,LDPE
isopropylamine,110,25.274863,LDPE
isopropylamine,105,18.74787993,LDPE
isopropylamine,100,13.83224391,LDPE
isopropylamine,95,10.15088643,LDPE
isopropylamine,90,7.40579851,LDPE
isopropylamine,85,5.36799289,LDPE
isopropylamine,80,3.863025,LDPE
isopropylamine,75,2.75820269,LDPE
isopropylamine,70,1.95266326,LDPE
isopropylamine,65,1.36980579,LDPE
isopropylamine,60,0.95160637,LDPE
isopropylamine,55,0.65427914,LDPE
isopropylamine,50,0.44495724,LDPE
isopropylamine,45,0.29913237,LDPE
isopropylamine,40,0.19867099,LDPE
isopropylamine,35,0.13027471,LDPE
isopropylamine,30,0.08428673,LDPE
isopropylamine,25,0.05376977,LDPE
methanol,160,99.98520826,LDPE
methanol,155,99.98913065,LDPE
methanol,150,99.97989629,LDPE
methanol,145,99.99861929,LDPE
methanol,140,98.13402901,LDPE
methanol,135,23.0999427,LDPE
methanol,130,14.43641985,LDPE
methanol,125,9.78218622,LDPE
methanol,120,6.82937461,LDPE
methanol,115,4.83311826,LDPE
methanol,110,3.44077192,LDPE
methanol,105,2.4535079,LDPE
methanol,100,1.7475457,LDPE
methanol,95,1.24096544,LDPE
methanol,90,0.87736567,LDPE
methanol,85,0.61692243,LDPE
methanol,80,0.4310597,LDPE
methanol,75,0.29908131,LDPE
methanol,70,0.20592706,LDPE
methanol,65,0.14062489,LDPE
methanol,60,0.09519254,LDPE
methanol,55,0.06384249,LDPE
methanol,50,0.04239925,LDPE
methanol,45,0.02786888,LDPE
methanol,40,0.01811998,LDPE
methanol,35,0.01164732,LDPE
methanol,30,0.00739714,LDPE
methanol,25,0.00463867,LDPE
methylacetate,160,99.99915079,LDPE
methylacetate,155,99.99869991,LDPE
methylacetate,150,99.99799331,LDPE
methylacetate,145,99.9968831,LDPE
methylacetate,140,96.46270229,LDPE
methylacetate,135,81.47453829,LDPE
methylacetate,130,60.59806316,LDPE
methylacetate,125,38.77879638,LDPE
methylacetate,120,24.9626022,LDPE
methylacetate,115,16.88286854,LDPE
methylacetate,110,11.77211898,LDPE
methylacetate,105,8.34321073,LDPE
methylacetate,100,5.9600368,LDPE
methylacetate,95,4.26919994,LDPE
methylacetate,90,3.05586993,LDPE
methylacetate,85,2.18052781,LDPE
methylacetate,80,1.54824926,LDPE
methylacetate,75,1.09234541,LDPE
methylacetate,70,0.76492815,LDPE
methylacetate,65,0.53113001,LDPE
methylacetate,60,0.36536889,LDPE
methylacetate,55,0.24881649,LDPE
methylacetate,50,0.16762273,LDPE
methylacetate,45,0.11163382,LDPE
methylacetate,40,0.07344749,LDPE
methylacetate,35,0.04770743,LDPE
methylacetate,30,0.03057231,LDPE
methylacetate,25,0.01931525,LDPE
butanone,160,99.98760817,LDPE
butanone,155,99.98418491,LDPE
butanone,150,99.97980192,LDPE
butanone,145,99.9741916,LDPE
butanone,140,96.57615337,LDPE
butanone,135,82.68957941,LDPE
butanone,130,65.54835221,LDPE
butanone,125,47.9450784,LDPE
butanone,120,33.97605566,LDPE
butanone,115,24.18155905,LDPE
butanone,110,17.38531068,LDPE
butanone,105,12.58631025,LDPE
butanone,100,9.14049771,LDPE
butanone,95,6.63830541,LDPE
butanone,90,4.80998078,LDPE
butanone,85,3.47093204,LDPE
butanone,80,2.49083354,LDPE
butanone,75,1.77554925,LDPE
butanone,70,1.25597951,LDPE
butanone,65,0.88088617,LDPE
butanone,60,0.61207938,LDPE
butanone,55,0.42105076,LDPE
butanone,50,0.28655187,LDPE
butanone,45,0.19280829,LDPE
butanone,40,0.12817857,LDPE
butanone,35,0.08413631,LDPE
butanone,30,0.05449217,LDPE
butanone,25,0.03479857,LDPE
ch2cl2,160,99.99933071,LDPE
ch2cl2,155,99.99908762,LDPE
ch2cl2,150,99.99874811,LDPE
ch2cl2,145,99.99827202,LDPE
ch2cl2,140,96.06380047,LDPE
ch2cl2,135,81.73791337,LDPE
ch2cl2,130,66.23355558,LDPE
ch2cl2,125,50.05140355,LDPE
ch2cl2,120,35.00657036,LDPE
ch2cl2,115,23.43795397,LDPE
ch2cl2,110,15.6990574,LDPE
ch2cl2,105,10.68595249,LDPE
ch2cl2,100,7.37990821,LDPE
ch2cl2,95,5.14431137,LDPE
ch2cl2,90,3.60226195,LDPE
ch2cl2,85,2.52446995,LDPE
ch2cl2,80,1.76546277,LDPE
ch2cl2,75,1.22932099,LDPE
ch2cl2,70,0.85076474,LDPE
ch2cl2,65,0.58431936,LDPE
ch2cl2,60,0.39778303,LDPE
ch2cl2,55,0.26811794,LDPE
ch2cl2,50,0.17875869,LDPE
ch2cl2,45,0.11778271,LDPE
ch2cl2,40,0.07663047,LDPE
ch2cl2,35,0.04918934,LDPE
ch2cl2,30,0.031127,LDPE
ch2cl2,25,0.01940191,LDPE
propyleneglycol,160,99.99948696,LDPE
propyleneglycol,155,30.42037435,LDPE
propyleneglycol,150,24.51841054,LDPE
propyleneglycol,145,21.23955742,LDPE
propyleneglycol,140,16.02216154,LDPE
propyleneglycol,135,9.78643265,LDPE
propyleneglycol,130,6.5697229,LDPE
propyleneglycol,125,4.57000759,LDPE
propyleneglycol,120,3.23290826,LDPE
propyleneglycol,115,2.30536318,LDPE
propyleneglycol,110,1.64882609,LDPE
propyleneglycol,105,1.17899325,LDPE
propyleneglycol,100,0.84099848,LDPE
propyleneglycol,95,0.5974892,LDPE
propyleneglycol,90,0.42226496,LDPE
propyleneglycol,85,0.29657641,LDPE
propyleneglycol,80,0.20684048,LDPE
propyleneglycol,75,0.14314722,LDPE
propyleneglycol,70,0.09824577,LDPE
propyleneglycol,65,0.06683217,LDPE
propyleneglycol,60,0.04503687,LDPE
propyleneglycol,55,0.03004956,LDPE
propyleneglycol,50,0.01984137,LDPE
propyleneglycol,45,0.0129581,LDPE
propyleneglycol,40,0.00836586,LDPE
propyleneglycol,35,0.00533621,LDPE
propyleneglycol,30,0.00336081,LDPE
propyleneglycol,25,0.00208866,LDPE
tert-butanol,160,99.99831624,LDPE
tert-butanol,155,99.99678154,LDPE
tert-butanol,150,99.99387673,LDPE
tert-butanol,145,99.98847284,LDPE
tert-butanol,140,96.28899211,LDPE
tert-butanol,135,78.78123677,LDPE
tert-butanol,130,57.37031916,LDPE
tert-butanol,125,39.68852076,LDPE
tert-butanol,120,27.63402186,LDPE
tert-butanol,115,19.53859794,LDPE
tert-butanol,110,13.96799029,LDPE
tert-butanol,105,10.04709961,LDPE
tert-butanol,100,7.24401864,LDPE
tert-butanol,95,5.22088451,LDPE
tert-butanol,90,3.75340724,LDPE
tert-butanol,85,2.68735033,LDPE
tert-butanol,80,1.91372136,LDPE
tert-butanol,75,1.35402526,LDPE
tert-butanol,70,0.95098915,LDPE
tert-butanol,65,0.66249075,LDPE
tert-butanol,60,0.45743343,LDPE
tert-butanol,55,0.31284565,LDPE
tert-butanol,50,0.21179222,LDPE
tert-butanol,45,0.14183957,LDPE
tert-butanol,40,0.09391232,LDPE
tert-butanol,35,0.06143439,LDPE
tert-butanol,30,0.03968096,LDPE
tert-butanol,25,0.0252895,LDPE
thf,160,99.99745211,LDPE
thf,155,99.99704884,LDPE
thf,150,99.99657869,LDPE
thf,145,99.99603024,LDPE
thf,140,96.65567077,LDPE
thf,135,84.5439571,LDPE
thf,130,71.83988651,LDPE
thf,125,59.19815758,LDPE
thf,120,47.42245268,LDPE
thf,115,37.1438879,LDPE
thf,110,28.62106904,LDPE
thf,105,21.79376414,LDPE
thf,100,16.44195658,LDPE
thf,95,12.30466893,LDPE
thf,90,9.13798694,LDPE
thf,85,6.73404609,LDPE
thf,80,4.92300195,LDPE
thf,75,3.56901134,LDPE
thf,70,2.56472607,LDPE
thf,65,1.82602064,LDPE
thf,60,1.28744684,LDPE
thf,55,0.89844396,LDPE
thf,50,0.62024252,LDPE
thf,45,0.42335295,LDPE
thf,40,0.28553879,LDPE
thf,35,0.19019016,LDPE
thf,30,0.1250249,LDPE
thf,25,0.0810588,LDPE
thp,160,99.99947131,LDPE
thp,155,99.99939852,LDPE
thp,150,99.99931462,LDPE
thp,145,99.99921775,LDPE
thp,140,96.04068105,LDPE
thp,135,82.28062402,LDPE
thp,130,68.76080907,LDPE
thp,125,56.07711686,LDPE
thp,120,44.75137572,LDPE
thp,115,35.08342535,LDPE
thp,110,27.12143416,LDPE
thp,105,20.73374818,LDPE
thp,100,15.70277665,LDPE
thp,95,11.79296348,LDPE
thp,90,8.78587146,LDPE
thp,85,6.49342467,LDPE
thp,80,4.76002551,LDPE
thp,75,3.45984227,LDPE
thp,70,2.49256019,LDPE
thp,65,1.77904667,LDPE
thp,60,1.25740848,LDPE
thp,55,0.8796215,LDPE
thp,50,0.60872032,LDPE
thp,45,0.41648892,LDPE
thp,40,0.28158017,LDPE
thp,35,0.18799662,LDPE
thp,30,0.12387091,LDPE
thp,25,0.08049442,LDPE
toluene,160,99.99270661,LDPE
toluene,155,99.99159424,LDPE
toluene,150,99.99030006,LDPE
toluene,145,99.9887926,LDPE
toluene,140,95.75893725,LDPE
toluene,135,80.92540677,LDPE
toluene,130,66.26228981,LDPE
toluene,125,52.58281677,LDPE
toluene,120,40.64143404,LDPE
toluene,115,30.82551029,LDPE
toluene,110,23.09992464,LDPE
toluene,105,17.17767997,LDPE
toluene,100,12.70218754,LDPE
toluene,95,9.3460068,LDPE
toluene,90,6.84117358,LDPE
toluene,85,4.97914029,LDPE
toluene,80,3.60070523,LDPE
toluene,75,2.58523726,LDPE
toluene,70,1.84146085,LDPE
toluene,65,1.30032384,LDPE
toluene,60,0.90960775,LDPE
toluene,55,0.62989066,LDPE
toluene,50,0.43150359,LDPE
toluene,45,0.29222231,LDPE
toluene,40,0.19550223,LDPE
toluene,35,0.12912006,LDPE
toluene,30,0.08412497,LDPE
toluene,25,0.05402802,LDPE
triethylamine,160,99.99964299,LDPE
triethylamine,155,99.9996063,LDPE
triethylamine,150,99.99956575,LDPE
triethylamine,145,99.99952091,LDPE
triethylamine,140,95.4158571,LDPE
triethylamine,135,80.40965754,LDPE
triethylamine,130,66.81206838,LDPE
triethylamine,125,54.76300204,LDPE
triethylamine,120,44.30808942,LDPE
triethylamine,115,35.41080979,LDPE
triethylamine,110,27.97223166,LDPE
triethylamine,105,21.85278204,LDPE
triethylamine,100,16.89203917,LDPE
triethylamine,95,12.92447731,LDPE
triethylamine,90,9.7906379,LDPE
triethylamine,85,7.34414542,LDPE
triethylamine,80,5.45538796,LDPE
triethylamine,75,4.01279038,LDPE
triethylamine,70,2.92247232,LDPE
triethylamine,65,2.10693846,LDPE
triethylamine,60,1.5032668,LDPE
triethylamine,55,1.06111316,LDPE
triethylamine,50,0.74073496,LDPE
triethylamine,45,0.51115249,LDPE
triethylamine,40,0.34850866,LDPE
triethylamine,35,0.23464945,LDPE
triethylamine,30,0.15592452,LDPE
triethylamine,25,0.10219334,LDPE
h2o,160,0.00316317,LDPE
h2o,155,0.00271978,LDPE
h2o,150,0.00233824,LDPE
h2o,145,0.00201034,LDPE
h2o,140,0.00162095,LDPE
h2o,135,0.00111284,LDPE
h2o,130,0.00076025,LDPE
h2o,125,0.00051683,LDPE
h2o,120,0.00034962,LDPE
h2o,115,0.00023533,LDPE
h2o,110,0.00015762,LDPE
h2o,105,0.00010504,LDPE
h2o,100,6.97E-05,LDPE
h2o,95,4.59E-05,LDPE
h2o,90,3.02E-05,LDPE
h2o,85,1.97E-05,LDPE
h2o,80,1.28E-05,LDPE
h2o,75,8.24E-06,LDPE
h2o,70,5.29E-06,LDPE
h2o,65,3.37E-06,LDPE
h2o,60,2.14E-06,LDPE
h2o,55,1.34E-06,LDPE
h2o,50,8.40E-07,LDPE
h2o,45,5.20E-07,LDPE
h2o,40,3.20E-07,LDPE
h2o,35,2.00E-07,LDPE
h2o,30,1.20E-07,LDPE
h2o,25,7.00E-08,LDPE
"1,4-dimethylbenzene",160,99.99755637,LDPE
"1,4-dimethylbenzene",155,99.99722501,LDPE
"1,4-dimethylbenzene",150,99.99684395,LDPE
"1,4-dimethylbenzene",145,99.99640512,LDPE
"1,4-dimethylbenzene",140,95.14802783,LDPE
"1,4-dimethylbenzene",135,78.75133417,LDPE
"1,4-dimethylbenzene",130,63.4500496,LDPE
"1,4-dimethylbenzene",125,49.92698543,LDPE
"1,4-dimethylbenzene",120,38.57403474,LDPE
"1,4-dimethylbenzene",115,29.41975292,LDPE
"1,4-dimethylbenzene",110,22.2369577,LDPE
"1,4-dimethylbenzene",105,16.6949493,LDPE
"1,4-dimethylbenzene",100,12.46217694,LDPE
"1,4-dimethylbenzene",95,9.25075259,LDPE
"1,4-dimethylbenzene",90,6.82683665,LDPE
"1,4-dimethylbenzene",85,5.00617807,LDPE
"1,4-dimethylbenzene",80,3.64568354,LDPE
"1,4-dimethylbenzene",75,2.63488617,LDPE
"1,4-dimethylbenzene",70,1.88875563,LDPE
"1,4-dimethylbenzene",65,1.34196927,LDPE
"1,4-dimethylbenzene",60,0.9444677,LDPE
"1,4-dimethylbenzene",55,0.65801536,LDPE
"1,4-dimethylbenzene",50,0.45354018,LDPE
"1,4-dimethylbenzene",45,0.30906527,LDPE
"1,4-dimethylbenzene",40,0.20809311,LDPE
"1,4-dimethylbenzene",35,0.13834027,LDPE
"1,4-dimethylbenzene",30,0.09074498,LDPE
"1,4-dimethylbenzene",25,0.05869021,LDPE
"1,2-dimethylbenzene",160,99.99455495,LDPE
"1,2-dimethylbenzene",155,99.99380233,LDPE
"1,2-dimethylbenzene",150,99.99293612,LDPE
"1,2-dimethylbenzene",145,99.99193789,LDPE
"1,2-dimethylbenzene",140,95.14075281,LDPE
"1,2-dimethylbenzene",135,78.61488553,LDPE
"1,2-dimethylbenzene",130,63.07383112,LDPE
"1,2-dimethylbenzene",125,49.30835094,LDPE
"1,2-dimethylbenzene",120,37.80208667,LDPE
"1,2-dimethylbenzene",115,28.60777754,LDPE
"1,2-dimethylbenzene",110,21.47151419,LDPE
"1,2-dimethylbenzene",105,16.02299195,LDPE
"1,2-dimethylbenzene",100,11.89984699,LDPE
"1,2-dimethylbenzene",95,8.79565977,LDPE
"1,2-dimethylbenzene",90,6.46749848,LDPE
"1,2-dimethylbenzene",85,4.72787666,LDPE
"1,2-dimethylbenzene",80,3.43355585,LDPE
"1,2-dimethylbenzene",75,2.47543076,LDPE
"1,2-dimethylbenzene",70,1.77040461,LDPE
"1,2-dimethylbenzene",65,1.25517436,LDPE
"1,2-dimethylbenzene",60,0.88155424,LDPE
"1,2-dimethylbenzene",55,0.61293936,LDPE
"1,2-dimethylbenzene",50,0.42162156,LDPE
"1,2-dimethylbenzene",45,0.28673355,LDPE
"1,2-dimethylbenzene",40,0.19266141,LDPE
"1,2-dimethylbenzene",35,0.12781305,LDPE
"1,2-dimethylbenzene",30,0.08365927,LDPE
"1,2-dimethylbenzene",25,0.05398747,LDPE
propanol,160,75.29622515,PP
propanol,155,63.98815361,PP
propanol,150,50.0530576,PP
propanol,145,37.88439772,PP
propanol,140,29.03698249,PP
propanol,135,22.64656986,PP
propanol,130,17.89082567,PP
propanol,125,14.25568716,PP
propanol,120,11.42225442,PP
propanol,115,9.18290812,PP
propanol,110,7.39595872,PP
propanol,105,5.96048737,PP
propanol,100,4.80228715,PP
propanol,95,3.8652747,PP
propanol,90,3.10611599,PP
propanol,85,2.4908174,PP
propanol,80,1.99235193,PP
propanol,75,1.58899425,PP
propanol,70,1.2631637,PP
propanol,65,1.00054724,PP
propanol,60,0.78944921,PP
propanol,55,0.62028402,PP
propanol,50,0.48518852,PP
propanol,45,0.3777091,PP
propanol,40,0.29255178,PP
propanol,35,0.22537926,PP
propanol,30,0.17264462,PP
propanol,25,0.13145435,PP
2-propanol,160,76.84440476,PP
2-propanol,155,67.11973528,PP
2-propanol,150,54.649537,PP
2-propanol,145,42.26369936,PP
2-propanol,140,32.5120819,PP
2-propanol,135,25.31633338,PP
2-propanol,130,19.95049003,PP
2-propanol,125,15.86051019,PP
2-propanol,120,12.68353055,PP
2-propanol,115,10.18095019,PP
2-propanol,110,8.18938388,PP
2-propanol,105,6.59321604,PP
2-propanol,100,5.3077708,PP
2-propanol,95,4.26934644,PP
2-propanol,90,3.42905034,PP
2-propanol,85,2.74864378,PP
2-propanol,80,2.19784171,PP
2-propanol,75,1.7523976,PP
2-propanol,70,1.3927315,PP
2-propanol,65,1.10294346,PP
2-propanol,60,0.87006275,PP
2-propanol,55,0.68347908,PP
2-propanol,50,0.53449634,PP
2-propanol,45,0.41598458,PP
2-propanol,40,0.32209885,PP
2-propanol,35,0.24805258,PP
2-propanol,30,0.18993249,PP
2-propanol,25,0.14454652,PP
propanone,160,82.93413567,PP
propanone,155,77.61405541,PP
propanone,150,70.72293736,PP
propanone,145,61.5135697,PP
propanone,140,50.05778903,PP
propanone,135,39.08432814,PP
propanone,130,30.64741278,PP
propanone,125,24.41731652,PP
propanone,120,19.70230918,PP
propanone,115,16.03203804,PP
propanone,110,13.11292084,PP
propanone,105,10.75579182,PP
propanone,100,8.83254399,PP
propanone,95,7.25239912,PP
propanone,90,5.94841443,PP
propanone,85,4.86970803,PP
propanone,80,3.97649843,PP
propanone,75,3.23708214,PP
propanone,70,2.62571675,PP
propanone,65,2.1212541,PP
propanone,60,1.70613437,PP
propanone,55,1.36567321,PP
propanone,50,1.08752135,PP
propanone,45,0.86126456,PP
propanone,40,0.67810465,PP
propanone,35,0.53060734,PP
propanone,30,0.41249729,PP
propanone,25,0.31848844,PP
acetylacetone,160,19.5296486,PP
acetylacetone,155,14.12201415,PP
acetylacetone,150,10.85930298,PP
acetylacetone,145,8.58180431,PP
acetylacetone,140,6.88444467,PP
acetylacetone,135,5.57206752,PP
acetylacetone,130,4.53387141,PP
acetylacetone,125,3.70014046,PP
acetylacetone,120,3.02382955,PP
acetylacetone,115,2.47148832,PP
acetylacetone,110,2.01843685,PP
acetylacetone,105,1.64586904,PP
acetylacetone,100,1.33912992,PP
acetylacetone,95,1.08657923,PP
acetylacetone,90,0.87882469,PP
acetylacetone,85,0.70820367,PP
acetylacetone,80,0.56840489,PP
acetylacetone,75,0.45419516,PP
acetylacetone,70,0.36121166,PP
acetylacetone,65,0.28580657,PP
acetylacetone,60,0.22492367,PP
acetylacetone,55,0.17600103,PP
acetylacetone,50,0.13689218,PP
acetylacetone,45,0.10580166,PP
acetylacetone,40,0.08123126,PP
acetylacetone,35,0.06193496,PP
acetylacetone,30,0.04688059,PP
acetylacetone,25,0.03521714,PP
benzene,160,81.47732639,PP
benzene,155,77.40674307,PP
benzene,150,73.08097728,PP
benzene,145,68.48962634,PP
benzene,140,63.62989542,PP
benzene,135,58.51313923,PP
benzene,130,53.17259786,PP
benzene,125,47.67348646,PP
benzene,120,42.11873583,PP
benzene,115,36.64718232,PP
benzene,110,31.41571357,PP
benzene,105,26.56960456,PP
benzene,100,22.21347086,PP
benzene,95,18.39788286,PP
benzene,90,15.12297217,PP
benzene,85,12.35427415,PP
benzene,80,10.03896358,PP
benzene,75,8.11796678,PP
benzene,70,6.53364868,PP
benzene,65,5.23332665,PP
benzene,60,4.17075907,PP
benzene,55,3.30614205,PP
benzene,50,2.60568364,PP
benzene,45,2.04089279,PP
benzene,40,1.58782896,PP
benzene,35,1.22644226,PP
benzene,30,0.93996957,PP
benzene,25,0.71442634,PP
chcl3,160,74.36378481,PP
chcl3,155,69.3703042,PP
chcl3,150,64.28472688,PP
chcl3,145,59.11993756,PP
chcl3,140,53.8967383,PP
chcl3,135,48.64664417,PP
chcl3,130,43.41610842,PP
chcl3,125,38.26885922,PP
chcl3,120,33.28665539,PP
chcl3,115,28.56360518,PP
chcl3,110,24.19383021,PP
chcl3,105,20.25371006,PP
chcl3,100,16.78864591,PP
chcl3,95,13.80656954,PP
chcl3,90,11.28392512,PP
chcl3,85,9.17696514,PP
chcl3,80,7.43271779,PP
chcl3,75,5.99755953,PP
chcl3,70,4.82185749,PP