S/N,Solvent name,Solvent name in cosmobase,CAS number,CID,Bp (oC),Th,LogP,Cp (J/g.K),Energy (J/g)
1000,carbon tetrafluoride,cf4,75-73-0,6393,-128,-128,1.63,0.91,-138.54
1001,camphor,camphor,76-22-2,2537,204,120,2.27,2.23,211.99
1002,butyl isobutyrate,butylisobutyrate,97-87-0,7353,,,3.34,0.00,0.00
1003,bromoacetic acid,bromoaceticacid,79-08-3,6227,208,120,0.38,0.95,89.86
1004,alpha-terpineol,alpha-terpineol,98-55-5,17100,220,120,3.05,2.30,218.60
1005,n-allylmethylamine,allylmethylamine,627-37-2,69391,,,1.55,0.00,0.00
1006,2-aminobutan-1-ol,2-amino-1-butanol,96-20-8,22129,176,120,0.49,2.32,220.18
1007,benzyl formate,benzylformate,104-57-4,7708,203,120,1.57,1.86,176.24